# vtk DataFile Version 2.0
S, Created by Mohamad Ibrahim Cheikh
ASCII
DATASET UNSTRUCTURED_GRID
POINTS 10490 double
-223.577 20.3386 -34.7914
-223.732 23.2839 -32.7644
-130.493 -29.3176 69.2798
-194.384 -37.8826 -41.0224
-207.476 29.5039 40.042
-235.88 27.3954 13.4743
-191.275 -39.7122 -41.0812
14.4303 -3.16138 87.7981
-191.083 39.2117 -41.6676
-193.424 36.9236 -42.4282
-251.147 3.21142 -3.38027
-251.007 5.46167 -0.714642
-204.328 29.2945 -42.1234
18.6344 -1.56497 87.7442
-201.231 30.3622 -43.1793
-151.373 68.7324 -14.6464
-148.594 69.9408 -12.207
241.381 21.7603 -11.7088
240.378 24.3443 -8.78244
39.9597 72.8419 -47.3557
43.7829 72.1435 -48.0065
45.4726 -3.22616 -86.4895
49.3296 -1.53025 -86.2771
-145.563 -45.4975 -55.4963
-142.059 -46.9224 -55.4215
-191.797 -27.3665 49.9132
-189.472 -30.0444 49.4583
-64.3392 -67.8381 51.334
-66.4785 -66.0178 53.3346
-121.232 -41.6823 -64.8631
-205.499 44.6035 24.1725
-208.438 41.8673 25.9227
-64.8771 -22.629 81.955
-61.2379 -23.9488 81.9227
44.339 4.14679 86.5223
-201.399 -44.9179 27.576
-53.6476 82.3018 -24.8606
-50.6556 81.9107 -26.8417
-109.541 -78.4117 -11.2479
-105.515 -79.2424 -10.078
-195.505 42.6351 35.3084
-200.947 -43.0034 30.8382
-54.432 -15.3606 84.5299
3.53618 8.23076 87.6055
226.255 36.0723 -13.2452
223.494 37.2785 -15.4583
-147.013 22.4109 -67.7916
-143.848 23.6601 -68.197
-167.021 -43.0249 -49.775
-163.503 -43.4799 -50.7992
-215.267 -7.1601 -44.9368
-215.167 -3.16436 -45.4513
-105.646 -17.6475 77.8852
-104.11 -21.1829 77.2546
-247.959 -12.524 7.72451
-247.222 -12.2253 10.5722
-226.225 -18.8475 33.5124
-129.027 -40.8342 -63.5481
238.447 4.07543 -27.6833
236.191 2.11796 -30.1591
30.714 -3.77076 -87.2599
26.739 -2.04896 -87.4772
-224.961 -22.541 32.2495
-47.6602 -75.8725 41.3433
-235.553 -26.7707 15.3058
-110.423 51.1231 -60.3124
-237.919 -25.2896 13.1986
-16.8351 -1.53107 -87.7893
-20.0217 -4.05899 -87.6267
25.3118 7.44002 -87.2365
27.4105 3.6434 -87.3999
25.4792 1.66504 -87.5314
45.9864 -6.34986 -86.2831
-242.159 -16.9754 16.6253
249.587 -5.36914 -9.40944
249.111 -2.30257 -11.8806
-169.144 48.162 43.8373
30.4455 -13.5002 -86.3033
-165.52 47.9308 45.743
-244.371 -14.4434 14.9726
243.986 6.92787 20.1942
244.544 3.56428 20.2422
-218.53 -34.2529 26.9077
-142.146 -69.411 21.2687
-139.63 -70.7398 18.7861
-221.096 -32.0565 27.0476
-157.971 -59.8003 33.3571
-205.041 32.4593 39.2839
-154.319 -61.364 32.6013
21.3247 7.31967 87.377
-119.093 18.4853 75.2717
-116.422 20.5652 75.2438
25.5782 -59.0343 64.644
29.1134 -57.6641 65.6892
-134.604 55.0105 -49.9963
-136.912 52.5293 -51.8626
-177.097 57.9146 23.4539
-176.71 59.3853 19.8576
-70.2646 65.0381 -53.9406
-62.7797 16.9203 -83.5175
-66.393 16.9218 -83.1744
-66.7234 66.5572 -52.622
124.472 57.7425 50.1295
121.039 58.3485 50.4557
-132.441 -69.8472 26.7931
-132.815 -68.0012 30.9869
-188.876 35.1137 46.2973
-185.128 37.2826 46.4544
-232.727 13.1731 -30.6498
-60.3575 74.9379 41.0158
-61.6667 76.4579 37.8499
-231.928 16.7973 -29.6018
-175.271 -46.957 -42.1659
-178.794 -11.2342 60.8607
-181.801 -8.37716 60.2272
-195.828 53.749 12.6496
-198.383 52.062 14.6697
-195.137 -6.40521 -55.1456
-196.112 -2.36599 -55.0432
-155.76 25.0244 64.401
-159.477 22.4754 64.2269
-196.211 -54.5515 -7.39849
-193.182 -56.048 -5.79667
-91.4417 75.1414 -32.7729
-87.473 75.5126 -33.2427
-39.231 -78.968 -36.3266
-42.7321 -77.6552 -38.6019
-35.7309 20.4373 -84.6759
-119.251 -59.0794 -50.1255
-116.056 -58.3921 -51.8204
-103.566 -58.9131 54.4066
-107.461 -57.2227 55.2788
-176.106 46.8989 -41.8033
26.9048 13.9266 -86.3795
23.8141 15.7473 -86.1777
-175.611 44.5874 -44.5008
-89.4473 -39.597 72.087
-93.3175 -38.4628 72.1004
-1.70648 -75.0135 -46.0068
2.63254 -75.2495 -45.6144
-158.023 -33.1993 -59.8711
-154.737 -36.6339 -58.9114
26.2192 72.6877 48.7477
28.6435 70.6621 51.4823
-166.611 38.7985 53.2926
-169.018 36.4225 54.0364
126.65 60.2621 46.3539
125.013 62.2376 44.2392
55.9275 20.2522 83.3721
-158.16 12.6343 67.2445
-155.548 9.85386 68.4448
-44.4338 73.0154 -46.5943
71.0065 53.0475 -65.671
-41.7733 74.6945 -44.1712
222.064 -27.8284 -30.5324
225.276 -26.0124 -29.2251
-17.9034 78.9909 -38.2779
-20.6349 77.7185 -40.641
247.477 -7.06406 13.9944
245.671 -9.0724 16.5072
-182.896 19.8489 57.049
-181.354 22.6912 56.5902
-55.9755 68.3117 51.9029
-53.6932 70.167 49.6752
-221.675 26.3863 -32.1177
245.289 -12.7014 14.7128
-123.339 -44.6621 -62.3444
-128.466 -46.9019 -59.3606
-126.785 -44.2472 -61.7914
-219.064 -11.0548 41.7911
-206.375 49.8757 -6.48252
-208.06 48.5129 -9.51815
-173.563 -35.1406 53.1132
-196.134 -34.8662 -42.6452
-56.8557 10.5973 85.0643
-99.8996 80.6136 4.85772
-149.824 -21.4709 67.3407
-153.214 -21.7178 66.3199
-105.975 79.7692 2.42495
-103.652 79.988 5.52873
-208.26 -1.8264 -49.3009
-211.703 -0.428502 -47.505
7.44676 76.2733 -43.8132
9.09367 74.5315 -46.679
-20.6139 85.7769 -18.2835
-23.5483 84.9328 -21.5063
12.8626 74.0999 -47.2541
-209.322 34.9053 -34.0774
-209.438 37.4767 -31.1316
-243.67 12.2885 -17.9904
-206.004 40.0846 -30.6848
-237.952 16.7272 23.0656
-240.125 13.5336 22.3944
-198.675 34.6969 41.3229
-44.0957 -51.8635 -69.3983
-47.9404 -52.1827 -68.8446
-65.3439 78.1474 -33.3801
-62.2681 79.1454 -31.7066
-198.912 37.6914 38.4613
-195.385 39.9814 38.3622
193.194 51.8474 -22.051
191.209 51.6118 -24.5778
-17.4646 72.1241 -50.0477
-15.9803 70.4356 -52.4553
-160.722 -8.68186 67.1271
-158.27 -5.14799 68.196
-159.181 -12.1865 67.0318
-155.59 -13.9535 67.7162
-181.218 -39.3693 -46.6201
-187.069 -34.8951 -47.3485
234.201 -8.19825 31.0077
231.367 -8.83973 33.3482
-185.725 -37.8061 -45.7342
-220.423 -36.332 -21.8073
-223.2 -33.1948 -23.2993
-74.6765 69.4429 47.3175
-199.259 43.363 -31.6647
-202.423 40.5089 -32.9608
-79.3506 71.8452 42.5603
-75.5555 71.618 43.7715
-199.863 -47.1007 -25.1999
-196.405 -49.1628 -24.5819
-156.239 -38.5664 57.1668
-155.217 -34.6077 59.9721
-162.928 56.246 -36.4748
-159.785 58.0757 -35.2906
245.94 -16.0779 8.95227
246.756 -13.0534 10.9095
-202.195 25.1209 -45.909
246.469 -16.6406 5.45928
-222.674 -40.7297 -3.81012
-219.563 -42.6766 -4.53655
-225.916 36.4511 -12.9115
-224.092 36.2093 -16.8757
-228.9 -34.8682 10.6496
-231.376 -33.5774 7.89095
-225.472 -37.7615 9.69487
119.599 74.8228 19.8575
-172.164 -51.102 -38.7773
115.405 75.6371 19.8111
47.9049 12.1487 -85.5304
51.4933 10.7588 -85.4612
-180.222 -22.1792 57.2323
-179.966 52.3154 -32.2779
-165.457 0.845177 66.2693
-168.581 2.82163 65.2429
-181.022 -17.4216 58.5541
36.4527 -59.7567 63.3281
37.7867 -57.21 65.5455
-159.985 -59.9395 -31.9002
-182.768 -21.7988 -56.3838
-184.315 -18.032 -57.0933
-11.9548 14.9477 -86.6203
-188.59 -54.9979 19.1011
-192.466 -53.1212 19.6699
-145.951 9.32657 -71.0565
-143.747 12.125 -71.1842
-174.39 52.4062 35.6965
-173.445 50.7069 38.5965
-187.192 39.7043 -43.3301
-231.502 33.4926 -7.79787
-229.096 35.9671 -4.96033
-234.907 30.8687 -5.93846
241.404 7.72068 23.4444
239.892 10.8365 24.102
240.609 13.4016 21.8298
-138.88 -61.8304 -39.4919
-138.123 -60.1633 -42.2924
-141.496 -58.2517 -43.5836
-200.351 -41.1652 -33.6901
-218.717 20.1132 -38.5061
-52.7139 8.9746 85.576
-56.6799 -81.1832 27.5675
-60.1943 -81.4609 25.778
-152.616 56.1689 41.6826
-153.426 58.041 38.6429
-189.415 -9.90094 -57.0388
-186.068 -8.88139 -58.5357
64.9097 -8.71463 84.5708
67.8932 -7.08508 84.4361
-196.835 -37.2203 40.1895
-200.415 -34.6107 40.3553
-180.668 -48.2458 -37.684
-174.532 -52.0917 -36.0701
-215.619 -38.509 23.8558
-218.655 -36.415 23.7599
-178.254 -50.982 -35.4212
-121.669 47.8902 -60.317
-71.577 59.3626 59.9403
26.8711 -68.3029 54.6838
24.8096 -66.5895 56.8724
-87.2041 -8.60946 -82.0905
-84.0231 -6.30592 -82.7036
-34.4159 85.6263 -16.3437
-37.8473 85.1015 -18.0653
-75.3636 59.8888 58.8385
-117.732 48.8961 -60.4664
67.1012 -10.9753 -84.0969
63.3522 -11.5798 -84.3714
-122.393 44.6841 -62.5566
-76.4662 63.862 -54.3119
-79.9517 64.0958 -53.4146
-210.937 -46.4386 -11.8322
-207.91 -47.2776 -14.7159
-70.3822 -66.9061 51.5858
-82.7015 61.6008 -55.7851
181.007 57.5721 -20.4502
187.794 54.7418 -20.7271
-57.9818 -57.7718 -63.2046
-60.2454 -59.951 -60.8729
185.032 56.5051 -18.9616
-52.2251 4.86822 85.944
170.803 -60.94 -21.4145
166.657 -61.8364 -22.799
-242.16 -11.2311 20.9366
-241.443 -7.71469 23.3969
231.623 25.8608 -22.5154
229.371 25.18 -25.8605
225.985 27.6873 -26.9258
-235.384 -18.9701 -24.5115
-234.85 -16.6287 -26.7373
-226.07 27.1595 -27.3721
-222.954 28.4599 -29.1241
-220.77 31.3742 -28.1509
-250.634 -7.29596 -0.178312
-176.058 45.3014 43.5531
58.7089 51.2273 -68.5403
59.7759 48.3974 -70.4573
128.119 68.3798 32.5358
131.61 68.3053 30.9478
-176.951 47.6068 40.5473
-181.052 46.7516 39.3072
18.7051 -86.418 15.2672
142.039 69.3646 -21.5056
141.106 68.3956 -25.067
23.2386 -86.1703 15.8921
181.098 -44.0245 42.3148
25.6369 -86.6619 12.3797
-189.028 21.638 -53.8625
-189.448 17.892 -55.0435
-212.326 -45.0148 14.0792
-120.853 -47.0062 -61.2068
-24.3198 -37.2758 79.2597
52.3349 18.5113 -84.0595
55.8479 16.7251 -84.1571
-25.289 -41.1246 77.2947
-119.136 -6.54758 -77.2233
-115.757 -7.76408 -77.738
-200.053 16.4664 50.7253
-215.148 -43.2646 14.3197
-153.446 33.0109 61.413
-156.875 31.3386 61.2284
-157.693 28.1865 62.4902
-79.9672 -83.4309 0.603088
-63.6246 72.5677 -44.5233
-62.8045 70.5342 -47.8123
-79.8046 -83.3553 -4.0209
-209.642 -18.6825 44.8797
-60.45 71.1715 47.236
-205.671 -19.6757 46.6688
-191.284 -46.3888 33.353
-190.154 -45.008 35.9356
-195.136 47.3202 29.0327
-192.217 -42.6384 37.45
-97.7128 19.7402 78.6472
-94.1379 20.9637 78.8641
-195.846 -41.8731 35.9824
-247.679 -8.81288 12.4831
188.065 -42.0219 40.5953
184.93 -44.2656 39.9693
-127.261 75.4888 7.9152
-123.652 76.0116 9.71069
48.8931 1.67264 86.3049
130.448 15.5889 -73.6046
-179.736 46.5124 -40.3169
198.596 13.1795 52.3603
200.49 9.4328 52.2854
113.367 74.8966 23.6854
109.629 75.3435 24.4113
149.571 63.7408 -30.6945
145.744 65.353 -29.5367
-166.874 -45.671 -47.422
129.848 19.3528 -72.837
-209.809 43.7056 -21.0824
-206.948 46.1286 -19.3066
126.473 20.205 -73.3309
-61.898 -0.376684 85.2923
-59.2004 2.55459 85.4891
[...]
POINT_DATA 10490
VECTORS F double
1.71301e-08 3.6399e-08 7.81167e-09
1.35377e-07 9.79017e-08 -4.35896e-08
1.26221e-07 6.71931e-07 3.13451e-07
5.61363e-08 -3.78484e-09 -2.90687e-08
2.89504e-07 2.68164e-07 -1.39426e-08
1.83846e-07 1.97999e-07 -8.56853e-09
8.26309e-08 2.90312e-08 -7.51639e-08
-1.79904e-06 2.01418e-06 1.08725e-07
1.01336e-06 7.82575e-07 1.67506e-07
1.12279e-06 6.67642e-07 -4.5646e-08
1.24162e-08 7.46042e-08 -4.17639e-08
1.12621e-08 6.03709e-08 -2.15551e-08
9.87922e-08 3.7527e-07 2.02315e-07
-2.24479e-06 3.58484e-06 1.22304e-07
1.44132e-07 1.11335e-07 -3.94641e-09
3.39299e-06 5.5495e-07 -1.68901e-06
4.4526e-06 7.0141e-07 -2.61703e-06
-1.2904e-08 2.38583e-08 1.17766e-08
-1.49626e-08 2.31006e-08 1.38989e-08
-3.41297e-05 5.4875e-06 4.91469e-06
-3.29384e-05 5.17701e-06 4.10186e-06
-3.48605e-06 1.96628e-06 -2.97738e-07
-3.17223e-06 1.42153e-06 -2.47271e-07
3.03532e-08 2.22227e-07 -1.91934e-07
5.68581e-08 2.47908e-07 -2.27731e-07
1.4695e-08 1.61587e-07 9.55038e-08
-4.32235e-10 1.37385e-07 8.32515e-08
-4.15447e-08 1.74161e-07 2.23779e-07
-1.73621e-07 1.34777e-07 1.40332e-07
2.54346e-07 2.15181e-07 -1.96479e-07
5.95228e-07 2.74051e-07 1.13829e-07
3.90116e-07 3.01362e-07 -1.02699e-07
8.81596e-08 2.88592e-06 8.05388e-07
-3.63132e-07 1.40451e-06 3.77352e-07
-1.90883e-06 2.85382e-06 -1.70154e-08
1.27969e-08 2.71091e-08 5.55948e-08
0.00012701 3.06936e-05 6.80548e-05
0.000138956 3.53487e-05 7.57637e-05
3.63624e-08 9.24407e-10 -4.97951e-08
3.11779e-08 -2.18208e-09 -2.28029e-08
6.62037e-07 3.67136e-07 5.46979e-09
2.44413e-08 2.78462e-08 5.83244e-08
3.71723e-07 2.66315e-06 5.13244e-07
-1.41232e-06 3.35849e-06 -3.0856e-07
-2.52073e-08 1.5051e-08 -1.17263e-08
-4.23589e-08 3.80738e-08 1.68377e-08
1.339e-06 9.14864e-07 -5.30629e-08
1.07884e-06 1.99568e-06 4.13777e-07
-5.05287e-08 1.05016e-07 -7.00149e-08
-4.35604e-08 1.18588e-07 -8.4335e-08
5.55186e-08 1.51225e-07 -5.66518e-08
7.43242e-08 1.60542e-07 -5.42487e-08
9.49574e-07 2.36343e-06 6.93205e-07
9.68477e-07 2.27049e-06 7.82346e-07
-3.85436e-08 9.38857e-08 6.69487e-10
-2.73782e-08 7.17439e-08 4.52668e-09
5.511e-08 9.34025e-08 9.80683e-08
1.76127e-07 3.8185e-08 -6.83168e-08
-2.03485e-08 1.38494e-08 -1.94197e-08
-1.94021e-08 8.88847e-09 -1.7978e-08
-2.67577e-06 3.22375e-06 -2.54617e-07
-2.41783e-06 4.23734e-06 -1.89733e-07
1.19322e-08 8.3426e-08 6.84917e-08
-3.5069e-08 5.00656e-08 8.69287e-08
-1.11389e-08 1.28802e-08 1.52381e-09
1.74394e-05 6.64539e-06 1.7238e-06
-2.03068e-08 3.53279e-08 2.28491e-08
-6.02407e-07 5.27574e-06 -7.78648e-08
2.00751e-07 3.93923e-06 -1.88084e-07
-4.13632e-07 8.04718e-06 6.71615e-07
-3.84071e-06 6.01838e-06 1.03415e-07
-2.39084e-06 4.40066e-06 -1.49428e-09
-1.2516e-06 2.27716e-06 -2.49253e-07
4.35885e-09 4.39918e-08 5.26637e-08
2.72203e-09 1.42782e-08 7.08288e-10
-3.69926e-09 5.55129e-09 -1.05665e-08
2.63397e-07 4.18386e-07 -3.3524e-07
1.06276e-06 1.62438e-06 -2.08197e-07
4.1235e-07 5.89325e-07 -4.3484e-07
5.25825e-11 2.9183e-08 2.82264e-08
-9.99451e-09 1.16042e-08 1.08023e-08
-2.75802e-09 1.18913e-08 1.98176e-09
1.73952e-08 1.56544e-08 3.72181e-08
2.37859e-08 5.86125e-09 3.85889e-08
1.22459e-08 3.29336e-09 2.35421e-08
1.42594e-08 1.85838e-08 3.6289e-08
3.46736e-08 3.13999e-08 7.63938e-08
2.32206e-07 3.13844e-07 -1.10943e-07
3.63607e-08 2.69899e-08 7.18712e-08
2.85806e-07 4.55318e-06 -3.89965e-07
2.15605e-06 2.8875e-06 -2.91478e-07
1.95011e-06 3.39974e-06 -5.59788e-07
-2.34748e-08 1.72055e-07 1.5826e-07
-6.15559e-08 2.5401e-07 2.26318e-07
5.73597e-06 3.90497e-06 2.40593e-06
7.82335e-06 2.99976e-06 5.09789e-07
4.08078e-07 3.61653e-07 -5.15792e-07
1.39783e-06 6.40142e-07 -3.91475e-07
3.96431e-05 2.49699e-05 2.37847e-05
2.66457e-06 8.59639e-07 -7.10588e-08
2.3967e-06 -3.75383e-07 -3.10594e-07
3.98301e-05 2.66792e-05 2.7561e-05
-1.00092e-06 4.03415e-07 -1.60402e-07
-1.06469e-06 4.09772e-07 -1.6117e-07
3.64788e-09 1.23599e-08 3.44241e-08
-2.9495e-10 1.722e-08 3.76316e-08
1.05091e-06 5.70554e-07 9.21585e-08
1.01816e-06 7.42675e-07 -9.92861e-08
6.3615e-08 8.73176e-08 -2.15997e-08
6.20747e-05 3.25424e-05 -4.82727e-05
5.8877e-05 3.11995e-05 -5.12796e-05
3.8921e-08 9.02943e-08 1.39151e-08
4.3409e-08 -1.84501e-08 -1.54311e-09
4.26458e-07 3.71895e-07 2.22029e-07
2.11928e-07 1.42955e-07 9.82026e-08
7.20539e-07 3.91435e-07 -2.97584e-07
8.63996e-07 4.12294e-07 -3.27396e-08
-3.73914e-09 1.23013e-07 -1.26649e-08
1.32134e-07 1.69974e-07 -6.49398e-08
3.61659e-07 2.59621e-06 -9.01728e-07
1.34326e-06 9.52073e-07 7.5178e-08
6.56544e-09 -1.31415e-09 -1.16191e-08
-1.34231e-09 -3.40654e-10 8.78185e-09
3.15371e-05 9.92365e-06 1.19796e-05
3.29432e-05 1.0279e-05 1.27364e-05
-4.18667e-08 5.01698e-08 -1.03525e-07
-2.88829e-08 6.42711e-08 -1.25379e-07
2.90862e-06 1.33309e-05 3.06726e-06
1.25046e-07 1.56977e-07 -2.21438e-07
1.21398e-07 1.83682e-07 -2.40261e-07
3.58353e-08 1.37782e-07 1.57544e-07
7.90351e-08 2.22165e-07 2.48785e-07
2.79729e-06 8.31594e-07 -5.09781e-07
1.38502e-07 7.54597e-06 1.22188e-06
-2.40372e-06 3.76476e-06 6.0661e-07
6.64842e-07 7.24805e-09 -3.13944e-07
2.11479e-07 5.38691e-07 3.28025e-07
2.7359e-07 8.59134e-07 5.01665e-07
-6.07214e-08 8.26638e-08 -1.34506e-07
-5.9714e-08 5.89163e-08 -9.76157e-08
1.23668e-07 2.4213e-07 -1.74225e-07
2.54161e-08 1.53841e-07 -1.03837e-07
-5.13682e-05 2.1452e-05 -2.86041e-05
-4.68967e-05 2.3009e-05 -2.83863e-05
2.82187e-06 1.27482e-06 1.51992e-07
2.42584e-06 1.48638e-06 -7.29205e-08
-5.02236e-07 1.891e-07 -7.78327e-08
-1.4841e-06 3.92294e-08 4.58266e-07
-5.75177e-07 3.12664e-07 -2.87118e-08
9.29824e-07 1.07299e-06 6.61467e-08
1.95916e-07 2.76954e-07 1.46351e-08
4.62955e-05 5.26285e-05 7.70658e-05
-6.33442e-06 3.01085e-06 1.59356e-06
4.84933e-05 5.19206e-05 8.21839e-05
-2.52811e-09 8.65765e-09 -1.01415e-08
-1.6205e-09 6.89376e-09 -7.66373e-09
2.28882e-05 7.28393e-05 0.000149
2.78382e-05 7.09177e-05 0.000133886
-5.01642e-10 1.11122e-10 1.13625e-09
-1.01892e-09 1.26267e-09 2.54578e-09
3.68234e-07 5.57479e-07 -4.94315e-08
2.92214e-07 6.22717e-07 -1.35046e-07
4.12367e-05 3.2987e-05 -3.79707e-05
3.6242e-05 3.54208e-05 -4.52363e-05
2.12238e-07 8.52966e-08 -1.09256e-07
-3.69908e-09 -1.11846e-09 6.58109e-09
2.44755e-07 1.96899e-07 -2.00335e-07
8.39314e-09 1.34053e-07 -1.0814e-07
2.26846e-07 4.00651e-08 -8.56727e-08
3.81965e-10 1.30015e-07 3.46315e-08
6.03821e-07 3.213e-07 1.18602e-07
6.43993e-07 3.46781e-07 4.4057e-08
8.68731e-08 1.32889e-07 1.22675e-07
8.92197e-08 8.19274e-09 -5.69326e-08
1.49649e-06 4.0304e-06 -3.79651e-07
4.65272e-05 7.0183e-06 6.78862e-07
-4.39235e-08 2.61354e-07 7.13634e-08
-7.67347e-08 3.63206e-07 9.72328e-08
3.8813e-05 6.67565e-06 -1.19268e-05
4.24088e-05 7.62929e-06 -1.3036e-05
5.17533e-08 9.74697e-08 -3.0372e-08
7.11076e-08 1.94579e-07 -4.05454e-08
-7.35399e-05 3.03723e-05 5.13431e-05
-5.69905e-05 3.44148e-05 5.35894e-05
0.000398705 3.62949e-05 0.000115235
0.000282923 5.69713e-05 0.00018706
-5.81474e-05 2.23791e-05 3.31548e-05
3.13754e-07 2.37558e-07 7.39069e-09
9.33381e-07 5.0909e-07 -1.55915e-07
1.07348e-07 1.82002e-07 -5.36561e-08
8.38105e-07 6.46801e-07 1.56076e-07
6.95276e-08 2.04702e-07 -6.06535e-08
8.14797e-08 1.72678e-07 2.58707e-09
4.24849e-07 -1.98866e-07 4.17049e-07
4.39631e-07 3.171e-07 -2.71178e-07
4.04581e-07 4.0443e-07 -3.41041e-07
7.79738e-05 3.09714e-05 5.38201e-05
8.05438e-05 3.0637e-05 5.71093e-05
7.16896e-07 -4.84863e-08 5.01431e-07
5.23764e-07 3.04749e-07 8.97728e-09
-8.3405e-08 3.95885e-08 3.61656e-09
-1.17551e-07 6.42338e-08 2.29204e-08
2.10728e-06 5.78785e-05 8.33188e-05
-1.15615e-05 5.37938e-05 7.26638e-05
7.08316e-07 4.19819e-07 2.61926e-07
8.7161e-07 3.49618e-07 2.74046e-07
1.70654e-07 1.57728e-07 7.82883e-08
2.85474e-07 3.68352e-07 1.56205e-07
1.01778e-07 9.90878e-08 -1.32111e-07
1.16129e-07 7.91353e-08 -1.14491e-07
1.6867e-09 1.07145e-08 1.27253e-09
1.26052e-09 1.06092e-08 1.73953e-09
8.78017e-08 6.49834e-08 -9.73686e-08
2.92884e-09 4.74442e-09 -1.15197e-08
-1.37743e-09 7.18108e-09 -8.6041e-09
4.64901e-05 1.73199e-05 -1.64356e-05
8.35737e-07 6.82565e-07 2.90871e-07
8.77369e-07 6.40369e-07 1.27344e-07
3.86679e-05 1.15647e-05 -1.06956e-05
4.339e-05 1.68589e-05 -1.84144e-05
4.16945e-09 1.4871e-08 -3.18389e-08
1.97532e-10 8.14027e-09 -1.64705e-08
6.15459e-08 2.52269e-07 1.90779e-07
1.85796e-07 2.35297e-07 1.94651e-07
1.574e-06 1.17791e-06 9.55607e-07
1.94173e-06 1.09698e-06 7.28882e-07
2.32063e-09 7.55328e-09 5.75492e-09
9.90499e-10 8.0927e-09 6.93424e-09
3.41476e-07 2.40179e-07 -5.27008e-08
9.84814e-10 3.58266e-09 5.46073e-09
-2.5548e-08 1.80217e-08 -9.80874e-09
-1.93578e-08 9.1659e-09 2.85065e-08
3.26872e-07 2.48252e-07 6.77801e-10
4.23869e-07 3.2784e-07 1.4362e-08
9.21558e-09 3.02987e-10 2.52122e-08
-3.61991e-09 1.16707e-08 3.66174e-08
7.14956e-12 -3.3857e-09 -1.31901e-08
-2.38301e-06 2.98214e-07 6.33527e-07
4.96542e-08 -1.66424e-08 -5.05638e-09
-2.45496e-06 3.81772e-07 2.93294e-07
8.25024e-07 1.56749e-06 2.79218e-07
7.21503e-07 1.0123e-06 1.80664e-07
1.04411e-07 3.10735e-07 1.60668e-07
1.73506e-06 5.57861e-07 -2.80191e-07
4.40308e-07 2.03414e-07 1.31995e-07
4.52484e-07 2.86466e-07 1.30749e-07
1.42832e-07 3.36261e-07 1.54105e-07
-3.43184e-08 1.67482e-07 1.60455e-07
-1.52102e-08 1.77014e-07 1.55577e-07
4.05551e-08 1.20782e-08 -4.75941e-08
6.89515e-08 6.68862e-08 -5.32214e-08
2.27451e-07 1.27588e-07 -1.30193e-07
1.94416e-06 1.06614e-05 1.80694e-06
6.06377e-09 8.86923e-09 3.28614e-08
1.51551e-09 7.95839e-09 2.33028e-08
1.14717e-06 7.83697e-07 -1.85614e-07
7.61092e-07 1.2074e-06 1.74985e-08
1.99669e-06 1.30954e-06 -7.28291e-07
1.34576e-06 9.99885e-07 -5.73219e-07
1.14338e-06 1.128e-06 4.28868e-07
3.69988e-07 3.10901e-07 -9.35455e-09
3.4242e-07 2.76954e-07 7.20755e-08
2.92382e-07 2.30476e-07 -2.17834e-07
-1.18675e-08 2.06983e-08 8.14288e-09
-8.06518e-09 2.5793e-08 -1.76944e-09
-8.65298e-09 2.54372e-08 -3.94248e-09
7.16738e-08 2.99157e-08 -7.76951e-08
1.53945e-08 5.54977e-08 -8.51026e-08
7.41785e-08 1.12083e-07 -1.79287e-07
-9.9247e-09 6.43422e-08 -7.13878e-08
1.38067e-07 2.1288e-07 1.51893e-08
2.57485e-06 6.0452e-06 -4.39796e-07
2.17264e-08 1.77089e-08 5.76167e-08
1.54405e-08 1.71814e-08 5.87049e-08
7.37667e-07 7.35908e-08 2.31498e-07
3.93449e-06 1.33749e-06 -9.63711e-08
1.46168e-07 2.56642e-07 -1.03972e-07
1.95847e-07 1.52924e-07 -9.94174e-08
2.39237e-07 4.83101e-07 2.73003e-08
5.81983e-08 9.0878e-07 7.05264e-08
1.95831e-08 6.82692e-08 7.49643e-08
1.4769e-08 7.01254e-08 6.91185e-08
2.03278e-08 2.54425e-08 -4.45021e-08
1.76508e-08 6.37948e-09 -1.96672e-08
1.344e-08 4.37931e-09 2.19361e-08
1.50852e-08 1.24967e-08 3.61437e-08
1.38659e-08 1.94692e-08 -3.65634e-08
9.96991e-06 4.68363e-06 1.2565e-06
2.58213e-05 2.38405e-05 -1.98357e-05
-4.09625e-09 1.92333e-07 2.40481e-07
-1.01061e-07 1.56281e-07 1.8838e-07
8.76302e-07 1.67684e-06 -2.89829e-07
8.08049e-07 1.9426e-06 -2.48623e-07
0.000265638 3.05461e-05 9.15443e-05
0.000240251 3.56955e-05 0.000106526
2.42753e-05 2.27693e-05 -1.93689e-05
9.65783e-06 7.82302e-06 4.02385e-06
-8.90147e-07 7.59989e-07 -1.86142e-07
-9.10723e-07 5.90087e-07 -1.64711e-07
6.19867e-06 4.6378e-06 1.82797e-06
3.10418e-05 2.64665e-05 2.57696e-05
2.7199e-05 2.00173e-05 1.90357e-05
6.85659e-10 -4.3204e-09 1.54776e-08
-1.84226e-08 1.45741e-08 -1.49459e-08
-1.25596e-07 5.89431e-08 5.54676e-08
2.86171e-05 1.8805e-05 1.55713e-05
-2.22383e-07 6.54143e-08 -5.68322e-08
-1.75652e-07 8.32623e-08 2.50545e-08
-4.51692e-07 2.79547e-07 -2.04786e-07
-2.76375e-07 1.57671e-07 -1.21794e-07
-2.18637e-07 8.3582e-08 -1.21398e-08
7.27322e-07 5.57266e-06 -2.61551e-07
8.96359e-09 5.62785e-09 -7.26147e-09
9.20388e-09 7.26958e-09 -1.14798e-08
-1.38894e-08 3.48831e-08 -9.86227e-10
6.49862e-09 2.63888e-08 1.6883e-08
-6.32554e-09 1.54633e-08 9.7943e-09
-1.7082e-08 3.09358e-08 1.15738e-08
-2.09282e-08 2.69957e-08 6.25547e-09
-2.97609e-08 5.58649e-08 -8.23068e-09
4.19566e-08 7.2382e-09 -4.96071e-08
2.84094e-07 3.31714e-07 4.1882e-08
2.88758e-07 1.63734e-07 -1.10625e-07
2.12494e-07 2.01004e-07 2.00046e-08
-2.21447e-08 9.35619e-08 -1.31497e-08
9.80985e-07 5.25062e-07 -6.0647e-08
-3.9751e-06 3.44747e-06 2.15978e-06
-2.42588e-06 3.58368e-06 2.20967e-06
-1.11856e-06 9.48992e-08 3.39822e-07
-9.52108e-07 -4.68083e-08 5.99032e-07
1.62139e-06 8.29421e-07 -1.07534e-07
1.47173e-06 2.70492e-07 5.08212e-07
-1.2404e-08 8.11227e-09 4.7779e-08
-5.65529e-07 -3.10115e-08 -5.5733e-07
-1.01169e-06 7.032e-08 -5.05375e-07
-3.40788e-09 4.06179e-10 2.81104e-09
-9.98882e-09 6.7974e-09 1.23062e-08
-9.30749e-09 -8.38631e-10 -3.51345e-09
1.93039e-07 5.41324e-07 1.34526e-07
1.3734e-07 5.27001e-07 1.13435e-07
-2.37099e-08 1.97723e-08 1.94287e-08
3.48352e-07 2.46464e-07 -2.7349e-07
-7.30416e-08 2.31895e-07 1.06316e-07
-1.73492e-06 2.3128e-06 3.77074e-07
-1.654e-06 2.22862e-06 3.08527e-07
-1.51526e-07 2.09867e-07 1.05589e-07
-1.24613e-07 1.12359e-06 -7.17286e-08
-6.53635e-08 1.17195e-06 -1.0513e-07
3.13031e-07 6.07868e-07 -4.61838e-08
-2.30886e-08 2.40001e-08 3.00332e-08
1.57786e-06 3.04701e-06 -1.15516e-06
1.93901e-06 1.97773e-06 -4.04033e-07
-2.9921e-07 2.1897e-06 -1.08012e-06
-2.84743e-08 3.25642e-09 -1.18656e-08
4.35728e-05 3.59885e-05 5.10335e-05
3.11276e-05 3.44247e-05 4.57783e-05
5.60714e-09 4.61636e-11 -1.45573e-08
4.20159e-09 7.85272e-08 3.50865e-08
5.58011e-05 3.32474e-05 -4.13515e-05
1.60402e-08 1.28377e-07 6.27742e-08
2.22329e-08 2.60296e-08 5.18118e-08
3.73747e-08 2.23006e-08 5.21413e-08
3.72582e-07 3.99059e-07 -3.43839e-07
2.45805e-08 2.28827e-08 4.14973e-08
2.33278e-06 7.29862e-06 -1.4771e-06
4.16534e-06 2.61058e-06 -8.52205e-08
1.20635e-08 6.18455e-08 8.0005e-08
-1.27896e-08 7.12916e-08 1.92041e-08
-2.29406e-08 1.32199e-08 2.66954e-08
-1.18151e-08 9.62392e-10 7.75803e-09
8.13462e-06 1.77222e-06 -8.89476e-07
1.03579e-05 2.62035e-06 -4.36321e-06
-2.38739e-06 1.78394e-06 1.31013e-07
-1.6517e-07 4.23961e-07 5.39522e-08
2.79658e-06 1.09784e-06 -2.59833e-07
-5.75185e-08 8.14809e-08 6.19986e-09
-2.37661e-08 9.44652e-08 -5.88551e-09
-1.79655e-06 1.06362e-07 7.16462e-07
-2.13905e-06 6.53141e-07 -8.3975e-07
-1.0742e-06 2.65857e-07 -8.87767e-08
-1.26184e-06 1.57653e-07 -4.13475e-07
-7.0225e-08 9.98544e-08 -6.59111e-08
-4.5136e-07 4.11741e-07 1.0885e-08
5.22084e-07 1.74679e-07 -2.73972e-07
5.23474e-07 1.94339e-07 -2.22627e-07
-4.73606e-07 4.23617e-07 1.67151e-08
6.73865e-07 5.01835e-06 8.20339e-08
1.9038e-06 4.15759e-06 3.71688e-08
1.26214e-06 3.40348e-06 1.76897e-07
1.14044e-08 1.42814e-08 4.98276e-08
9.07284e-06 1.94674e-06 4.98119e-07
1.02871e-05 2.23178e-06 -1.92973e-06
-1.44421e-06 6.25719e-06 -1.08247e-06
1.07227e-08 -1.20578e-09 1.40281e-08
2.03664e-06 3.90887e-06 8.09884e-08
2.09352e-06 1.13514e-05 6.44568e-06
5.31948e-06 5.85284e-06 2.43952e-06
1.26065e-05 1.11157e-05 5.22498e-06
9.59822e-08 3.97232e-07 6.43007e-08
5.62276e-08 5.32026e-07 4.40555e-08
-2.58867e-07 1.39801e-06 1.57051e-07
-1.80624e-08 7.38201e-07 8.36984e-08
7.13773e-07 3.10332e-07 1.62034e-07
3.21747e-07 5.24779e-07 9.63745e-08
2.0078e-06 6.85772e-07 -1.62632e-08
2.85764e-06 1.2611e-06 5.68483e-07
-3.21576e-08 8.23517e-10 2.49135e-08
-2.73954e-08 -2.2574e-09 1.2431e-08
7.07372e-08 2.01006e-08 -8.23871e-08
5.486e-08 1.01907e-08 -5.08816e-08
-1.85881e-08 6.50461e-08 9.82002e-08
1.26935e-08 5.32433e-08 1.04028e-07
-1.43617e-08 5.52483e-08 9.18946e-08
2.70592e-07 1.03793e-07 2.04565e-07
4.11512e-07 2.55254e-07 -8.0345e-08
5.90011e-07 2.78892e-07 1.4426e-07
2.37357e-08 7.55484e-08 -8.24847e-08
1.30434e-08 7.62528e-08 -7.81285e-08
-5.61719e-08 5.91003e-07 -3.39916e-07
2.19224e-08 3.37036e-07 -1.98487e-07
-1.60243e-07 2.79121e-06 -5.15505e-07
-7.70761e-07 1.88304e-06 -3.4885e-07
-1.33863e-08 6.2819e-08 -5.63383e-08
2.08585e-07 -1.07127e-08 -3.95594e-08
-1.89957e-08 6.17474e-09 1.15161e-08
1.25609e-08 3.41706e-08 -5.18408e-08
-1.77654e-06 3.74116e-06 -1.62619e-07
-7.69806e-08 3.71022e-07 -2.75617e-07
-1.39284e-07 3.21936e-07 -2.27108e-07
2.71835e-05 3.74369e-05 3.58485e-05
1.79929e-06 9.51134e-07 1.44591e-06
0.000117315 1.05294e-05 -1.4973e-06
0.000136464 1.17682e-05 -2.32175e-05
9.65868e-05 1.23141e-05 -3.88949e-05
0.000125028 1.16903e-05 -1.68348e-05
1.87977e-06 9.16612e-07 1.54926e-06
2.60119e-05 2.85477e-05 2.63118e-05
2.44356e-05 2.84486e-05 2.41425e-05
4.1778e-08 2.97735e-08 -7.88883e-08
-2.32289e-08 5.54077e-09 -3.00918e-08
-1.2015e-08 4.50707e-09 -4.9189e-08
4.7364e-08 2.00781e-08 -6.67879e-08
2.16168e-08 1.04796e-08 -3.49734e-08
1.47268e-07 2.56264e-07 8.97915e-08
1.04823e-07 3.89422e-07 2.36499e-07
-6.84436e-07 9.93555e-08 2.3076e-07
-2.47272e-05 8.93188e-06 -8.30251e-06
-2.27054e-05 1.2582e-05 -1.38111e-05
-9.0492e-07 7.79782e-07 -2.16722e-07
2.13673e-07 2.08419e-07 -1.68189e-07
3.49282e-07 3.91569e-07 1.02826e-07
1.87605e-07 5.32539e-07 -2.80364e-07
1.77022e-07 2.21771e-07 -1.47627e-07
1.11482e-07 5.18945e-09 6.81515e-08
9.13503e-08 5.01157e-08 1.19321e-07
5.73522e-08 3.03699e-08 7.73814e-08
1.28369e-06 1.67782e-06 -1.18892e-07
1.41347e-06 1.91495e-06 -1.21211e-07
-5.05322e-05 2.10284e-05 -3.09394e-05
-1.05582e-07 2.32898e-07 6.38319e-09
2.88706e-08 6.9043e-09 2.13149e-08
-2.74901e-08 6.16943e-08 1.11618e-07
6.82138e-07 2.03633e-06 -2.18627e-07
7.01604e-07 1.35509e-06 -1.72766e-07
-5.99835e-08 1.0563e-07 -1.10728e-09
1.21289e-07 1.90207e-07 1.18903e-09
-1.19555e-07 1.85594e-07 -1.25793e-08
-2.07013e-05 1.2558e-06 -1.11531e-06
5.65956e-09 1.16702e-07 -5.5757e-08
-1.01182e-09 9.91396e-08 -4.85986e-08
-8.21197e-06 -9.50179e-07 -2.88401e-06
8.23694e-07 7.85803e-07 -2.89449e-07
-1.53711e-05 4.55183e-06 4.48387e-06
-1.09206e-08 9.97487e-08 -5.7569e-10
1.81626e-06 6.48182e-07 1.84382e-07
1.97107e-06 5.28272e-07 4.98235e-07
2.50283e-09 6.7928e-08 -3.52505e-08
-9.37513e-09 7.73915e-08 2.26298e-08
1.15175e-07 2.06226e-07 -1.23512e-07
1.47348e-08 -7.18485e-09 -1.80704e-08
1.48125e-08 2.54655e-09 -3.55913e-08
4.51823e-07 4.82188e-07 -1.37216e-07
5.64233e-07 4.05823e-07 6.1539e-08
2.89386e-06 2.38428e-06 9.96918e-07
3.70745e-05 3.97659e-05 5.10564e-05
3.11299e-05 3.9745e-05 4.71454e-05
1.60653e-08 8.20665e-10 -1.66247e-09
-1.28928e-08 5.02323e-10 -1.80165e-08
2.35465e-05 3.36326e-05 3.78022e-05
3.59255e-07 1.01395e-07 1.51691e-07
1.7937e-07 1.49808e-07 8.71284e-09
-2.11867e-08 5.45007e-08 -1.38684e-09
-9.37863e-08 1.76921e-07 1.59024e-07
-8.72164e-08 1.93803e-07 1.59385e-07
-6.00637e-07 3.25186e-06 2.66589e-07
-8.64423e-08 4.0068e-08 3.57523e-08
-2.31479e-08 1.1405e-07 8.98175e-08
-6.34191e-05 3.6059e-05 -5.61486e-05
-4.97594e-05 3.01591e-05 -4.341e-05
-7.49192e-07 3.27681e-06 2.81096e-07
1.04444e-06 1.2664e-06 -2.69032e-07
-2.8178e-07 2.73101e-06 3.57088e-07
-1.92043e-09 1.3816e-09 -2.40469e-08
4.33829e-08 7.2525e-07 -2.51206e-07
-5.25776e-06 3.69849e-05 -3.59049e-05
2.51761e-07 3.49863e-07 -4.66392e-08
9.79838e-07 6.73091e-07 7.05826e-07
6.13329e-08 1.07957e-07 -5.44848e-08
-3.13711e-08 4.49262e-08 2.66203e-08
8.72446e-09 2.45064e-09 -5.54693e-09
-3.55068e-09 3.55913e-09 -2.19155e-08
-1.42903e-05 2.18887e-05 -2.14237e-05
-2.92948e-08 5.94179e-08 8.86052e-08
1.4021e-06 5.19742e-07 -2.193e-07
-4.78104e-09 -2.37712e-09 1.44901e-09
6.11873e-08 1.23374e-07 1.34052e-07
1.90524e-08 2.61465e-09 2.20293e-08
2.08519e-05 2.684e-05 -1.9026e-05
2.67687e-07 8.52578e-08 -1.04176e-07
1.16997e-05 2.89747e-05 -2.37818e-05
0.000563157 1.87941e-05 -0.000139787
0.000578637 2.3659e-05 -0.000128554
1.44232e-08 9.32438e-08 8.91254e-08
-5.83743e-06 7.28543e-05 -0.000187677
1.22343e-08 1.05433e-07 8.57208e-08
-5.79304e-08 7.53703e-08 1.43356e-08
-6.7627e-08 5.48706e-08 -6.50963e-09
4.0329e-08 1.4581e-07 1.22646e-07
1.10329e-06 1.14516e-06 -3.6273e-07
1.36229e-08 2.69798e-09 -1.27289e-08
3.53086e-07 2.80915e-07 -1.04524e-07
3.4604e-05 4.40131e-05 -4.75184e-05
3.5564e-07 1.97468e-07 6.99699e-08
3.61793e-07 1.59238e-07 1.37604e-07
3.69498e-07 1.89256e-07 1.15625e-07
3.15271e-05 4.43464e-05 6.34153e-05
-9.95205e-08 5.32522e-08 -2.10066e-08
-8.74973e-08 4.59055e-08 -5.17642e-08
-1.66697e-07 1.10599e-07 -1.79661e-08
-3.0031e-07 2.67241e-07 -7.64972e-08
3.66102e-05 4.7933e-05 6.64949e-05
7.83584e-06 2.47731e-06 -1.2204e-07
1.71119e-06 5.75703e-06 -3.17033e-06
1.6282e-06 4.94224e-06 -2.56127e-06
0.00035396 2.37166e-05 -9.95404e-05
0.000339733 2.54244e-05 -9.29339e-05