# vtk DataFile Version 2.0
S, Created by Mohamad Ibrahim Cheikh
ASCII
DATASET UNSTRUCTURED_GRID
POINTS 10490 double
-223.577 20.3386 -34.7914
-223.731 23.284 -32.7645
-130.493 -29.3169 69.2801
-194.384 -37.8826 -41.0225
-207.475 29.5042 40.0419
-235.88 27.3956 13.4743
-191.275 -39.7122 -41.0812
14.4285 -3.15936 87.7982
-191.082 39.2124 -41.6675
-193.423 36.9243 -42.4283
-251.147 3.21149 -3.38031
-251.007 5.46173 -0.714664
-204.328 29.2948 -42.1232
18.6322 -1.56139 87.7443
-201.231 30.3623 -43.1793
-151.369 68.733 -14.6481
-148.589 69.9415 -12.2097
241.381 21.7603 -11.7088
240.378 24.3444 -8.78242
39.9263 72.8473 -47.3508
43.7506 72.1486 -48.0025
45.4691 -3.2242 -86.4898
49.3264 -1.52883 -86.2773
-145.563 -45.4973 -55.4965
-142.059 -46.9221 -55.4218
-191.797 -27.3664 49.9133
-189.472 -30.0443 49.4584
-64.3392 -67.838 51.3343
-66.4786 -66.0177 53.3347
-121.231 -41.682 -64.8633
-205.499 44.6037 24.1726
-208.437 41.8676 25.9225
-64.877 -22.6261 81.9558
-61.2382 -23.9474 81.9231
44.3371 4.14964 86.5223
-201.399 -44.9178 27.5761
-53.5224 82.3317 -24.7945
-50.5185 81.9453 -26.7678
-109.541 -78.4117 -11.248
-105.515 -79.2424 -10.078
-195.504 42.6355 35.3084
-200.947 -43.0034 30.8383
-54.4316 -15.3579 84.5305
3.53476 8.23412 87.6052
226.255 36.0723 -13.2452
223.494 37.2785 -15.4583
-147.011 22.4118 -67.7916
-143.847 23.6621 -68.1966
-167.021 -43.0248 -49.7751
-163.503 -43.4798 -50.7993
-215.267 -7.15995 -44.9369
-215.167 -3.16419 -45.4514
-105.645 -17.6451 77.8859
-104.109 -21.1806 77.2554
-247.959 -12.5239 7.72451
-247.222 -12.2252 10.5722
-226.225 -18.8474 33.5125
-129.027 -40.8342 -63.5481
238.447 4.07544 -27.6833
236.191 2.11797 -30.1591
30.7114 -3.76754 -87.2601
26.7366 -2.04473 -87.4774
-224.961 -22.5409 32.2496
-47.6602 -75.8724 41.3434
-235.553 -26.7707 15.3058
-110.406 51.1298 -60.3107
-237.919 -25.2895 13.1987
-16.8357 -1.52579 -87.7894
-20.0215 -4.05505 -87.6269
25.3114 7.44803 -87.2358
27.4067 3.6494 -87.3998
25.4769 1.66943 -87.5314
45.9851 -6.34759 -86.2833
-242.159 -16.9753 16.6254
249.587 -5.36912 -9.40944
249.111 -2.30256 -11.8807
-169.144 48.1624 43.837
30.4466 -13.4986 -86.3035
-165.52 47.9314 45.7426
-244.371 -14.4434 14.9726
243.986 6.92788 20.1942
244.544 3.56429 20.2422
-218.53 -34.2529 26.9077
-142.146 -69.411 21.2688
-139.63 -70.7398 18.7861
-221.096 -32.0565 27.0476
-157.971 -59.8002 33.3572
-205.04 32.4596 39.2838
-154.319 -61.3639 32.6014
21.3249 7.32422 87.3767
-119.091 18.4882 75.2714
-116.42 20.5686 75.2433
25.5782 -59.0342 64.6442
29.1134 -57.6639 65.6895
-134.598 55.0143 -49.9939
-136.904 52.5323 -51.8621
-177.096 57.915 23.4534
-176.709 59.3859 19.8572
-70.2256 65.0629 -53.9169
-62.7771 16.9212 -83.5175
-66.3906 16.9215 -83.1747
-66.6843 66.5839 -52.5943
124.471 57.7429 50.1294
121.038 58.3489 50.4556
-132.441 -69.8472 26.7931
-132.815 -68.0012 30.9869
-188.875 35.1143 46.2974
-185.127 37.2834 46.4543
-232.727 13.1732 -30.6499
-60.2968 74.97 40.968
-61.6088 76.4887 37.799
-231.928 16.7974 -29.6018
-175.271 -46.957 -42.1659
-178.794 -11.2338 60.8609
-181.801 -8.37702 60.2273
-195.827 53.7494 12.6493
-198.382 52.0625 14.6696
-195.137 -6.40508 -55.1456
-196.111 -2.36582 -55.0433
-155.759 25.027 64.4001
-159.476 22.4763 64.227
-196.211 -54.5515 -7.39851
-193.182 -56.048 -5.79666
-91.4103 75.1512 -32.7611
-87.4402 75.5228 -33.2298
-39.231 -78.968 -36.3267
-42.7322 -77.6552 -38.602
-35.7281 20.4505 -84.6729
-119.251 -59.0793 -50.1257
-116.056 -58.3919 -51.8206
-103.566 -58.9129 54.4067
-107.461 -57.2225 55.2791
-176.103 46.8997 -41.8038
26.905 13.9341 -86.3783
23.8117 15.751 -86.1771
-175.61 44.5874 -44.5011
-89.4471 -39.5964 72.0873
-93.3172 -38.462 72.1009
-1.70654 -75.0134 -46.0069
2.63248 -75.2494 -45.6145
-158.023 -33.199 -59.8713
-154.737 -36.6338 -58.9115
26.1684 72.7088 48.7195
28.5972 70.6847 51.4543
-166.608 38.7998 53.2928
-169.015 36.424 54.0363
126.649 60.2623 46.3538
125.011 62.2377 44.2396
55.9269 20.2525 83.372
-158.159 12.6353 67.2445
-155.548 9.85413 68.4448
-44.3876 73.0675 -46.518
71.0002 53.0505 -65.6694
-41.7252 74.746 -44.0895
222.064 -27.8283 -30.5324
225.276 -26.0124 -29.2251
-17.8779 79.0619 -38.1324
-20.6055 77.7881 -40.5096
247.477 -7.06406 13.9944
245.671 -9.0724 16.5072
-182.896 19.8494 57.049
-181.354 22.6918 56.59
-55.9344 68.3448 51.8647
-53.6568 70.2024 49.63
-221.675 26.3863 -32.1178
245.289 -12.7014 14.7128
-123.339 -44.6619 -62.3446
-128.466 -46.9017 -59.3607
-126.785 -44.2472 -61.7915
-219.064 -11.0547 41.7911
-206.374 49.876 -6.4824
-208.06 48.5133 -9.51811
-173.563 -35.1405 53.1133
-196.134 -34.8662 -42.6453
-56.8542 10.6013 85.0639
-99.8538 80.6205 4.85821
-149.824 -21.4706 67.3408
-153.215 -21.7174 66.32
-105.937 79.7758 2.4133
-103.61 79.9955 5.51607
-208.26 -1.8263 -49.3009
-211.703 -0.428306 -47.5051
7.37524 76.3029 -43.7631
9.03745 74.5648 -46.6271
-20.2212 85.8117 -18.1736
-23.2645 84.9873 -21.3281
12.8054 74.1219 -47.2215
-209.321 34.9055 -34.0774
-209.437 37.4772 -31.1318
-243.67 12.2887 -17.9905
-206.003 40.0852 -30.6846
-237.952 16.7275 23.0655
-240.125 13.5338 22.3944
-198.675 34.6967 41.3233
-44.0952 -51.8632 -69.3985
-47.94 -52.1823 -68.845
-65.2668 78.1778 -33.3272
-62.1882 79.1754 -31.6509
-198.911 37.6914 38.4618
-195.385 39.9817 38.3623
193.194 51.8475 -22.051
191.209 51.6118 -24.5778
-17.4629 72.1808 -49.9659
-15.9919 70.4884 -52.3839
-160.722 -8.68144 67.1273
-158.269 -5.14764 68.1963
-159.181 -12.1863 67.0319
-155.589 -13.9531 67.7164
-181.218 -39.3692 -46.6202
-187.069 -34.895 -47.3486
234.201 -8.19824 31.0077
231.367 -8.83972 33.3482
-185.725 -37.8061 -45.7343
-220.423 -36.332 -21.8073
-223.2 -33.1948 -23.2993
-74.6309 69.4601 47.301
-199.258 43.3637 -31.6644
-202.423 40.5095 -32.9607
-79.3127 71.8567 42.5495
-75.5128 71.6348 43.7531
-199.863 -47.1007 -25.2
-196.405 -49.1628 -24.5819
-156.239 -38.5662 57.167
-155.217 -34.6075 59.9723
-162.926 56.2472 -36.4738
-159.783 58.0768 -35.2899
245.94 -16.0779 8.95227
246.756 -13.0534 10.9095
-202.195 25.1212 -45.9091
246.469 -16.6406 5.45928
-222.674 -40.7297 -3.81013
-219.563 -42.6766 -4.53652
-225.916 36.4514 -12.9115
-224.091 36.2096 -16.8757
-228.9 -34.8682 10.6496
-231.376 -33.5774 7.89099
-225.472 -37.7615 9.69486
119.596 74.8231 19.8581
-172.164 -51.102 -38.7773
115.402 75.6374 19.8114
47.9058 12.1502 -85.5301
51.494 10.7599 -85.461
-180.222 -22.1788 57.2325
-179.964 52.3159 -32.2782
-165.457 0.845381 66.2694
-168.58 2.82192 65.243
-181.022 -17.4213 58.5542
36.4527 -59.7565 63.3283
37.7867 -57.2098 65.5456
-159.985 -59.9395 -31.9002
-182.768 -21.7987 -56.3838
-184.315 -18.0318 -57.0934
-11.9529 14.9583 -86.6185
-188.59 -54.9979 19.1011
-192.466 -53.1212 19.6699
-145.95 9.32736 -71.0567
-143.746 12.1263 -71.1842
-174.388 52.4075 35.6958
-173.444 50.7079 38.5959
-187.191 39.7055 -43.3297
-231.502 33.4929 -7.79788
-229.096 35.9674 -4.96026
-234.907 30.8689 -5.93868
241.404 7.7207 23.4444
239.892 10.8366 24.102
240.609 13.4016 21.8298
-138.88 -61.8304 -39.492
-138.123 -60.1633 -42.2925
-141.496 -58.2516 -43.5838
-200.351 -41.1652 -33.6902
-218.717 20.1134 -38.5061
-52.7113 8.98064 85.5756
-56.6799 -81.1832 27.5675
-60.1943 -81.4609 25.7781
-152.616 56.169 41.6828
-153.422 58.0424 38.6428
-189.415 -9.90068 -57.0389
-186.068 -8.88124 -58.5358
64.9099 -8.71414 84.5708
67.8933 -7.08417 84.4362
-196.835 -37.2202 40.1896
-200.415 -34.6106 40.3553
-180.668 -48.2458 -37.6841
-174.532 -52.0917 -36.0702
-215.619 -38.509 23.8558
-218.655 -36.415 23.76
-178.254 -50.9819 -35.4212
-121.659 47.8949 -60.3157
-71.5512 59.3863 59.9206
26.8711 -68.3027 54.684
24.8095 -66.5894 56.8726
-87.2032 -8.60778 -82.0908
-84.0223 -6.30397 -82.7039
-34.1553 85.6556 -16.257
-37.612 85.1359 -17.9634
-75.3393 59.9112 58.8194
-117.722 48.9039 -60.4624
67.1003 -10.9745 -84.0971
63.3513 -11.5792 -84.3716
-122.386 44.6888 -62.5548
-76.4353 63.8881 -54.2866
-79.9245 64.1156 -53.3958
-210.937 -46.4386 -11.8322
-207.911 -47.2776 -14.7159
-70.3824 -66.906 51.5859
-82.6731 61.6195 -55.7696
181.007 57.5722 -20.4502
187.794 54.7419 -20.7271
-57.9822 -57.7715 -63.2048
-60.2457 -59.9508 -60.8731
185.032 56.5052 -18.9616
-52.2244 4.87379 85.9438
170.803 -60.94 -21.4145
166.657 -61.8364 -22.799
-242.16 -11.2311 20.9366
-241.443 -7.71467 23.3969
231.623 25.8608 -22.5154
229.371 25.18 -25.8604
225.985 27.6873 -26.9258
-235.384 -18.97 -24.5115
-234.85 -16.6287 -26.7374
-226.07 27.1598 -27.372
-222.953 28.4601 -29.1242
-220.77 31.3744 -28.1509
-250.634 -7.29586 -0.178326
-176.057 45.3019 43.553
58.705 51.2308 -68.5382
59.7735 48.401 -70.4551
128.118 68.3799 32.5361
131.609 68.3052 30.9484
-176.95 47.6076 40.5472
-181.05 46.7519 39.3077
18.7051 -86.418 15.2672
142.039 69.3646 -21.5062
141.105 68.3957 -25.0675
23.2385 -86.1703 15.8921
181.098 -44.0245 42.3148
25.6369 -86.6619 12.3797
-189.028 21.6385 -53.8624
-189.448 17.8926 -55.0434
-212.326 -45.0147 14.0792
-120.852 -47.006 -61.2071
-24.3199 -37.2756 79.2598
52.3332 18.5137 -84.0591
55.8463 16.7273 -84.1568
-25.2891 -41.1244 77.2948
-119.136 -6.54645 -77.2233
-115.757 -7.7629 -77.7381
-200.053 16.467 50.7252
-215.148 -43.2645 14.3198
-153.445 33.0139 61.4119
-156.873 31.3406 61.228
-157.693 28.1887 62.4891
-79.9673 -83.4309 0.603076
-63.5812 72.6033 -44.4728
-62.7733 70.5682 -47.767
-79.8046 -83.3553 -4.02091
-209.642 -18.6824 44.8797
-60.3953 71.2042 47.1951
-205.671 -19.6756 46.6689
-191.283 -46.3888 33.3531
-190.154 -45.008 35.9357
-195.135 47.3206 29.0324
-192.217 -42.6384 37.45
-97.7104 19.7475 78.6457
-94.1338 20.9664 78.864
-195.846 -41.8731 35.9825
-247.679 -8.81281 12.4831
188.065 -42.0219 40.5954
184.93 -44.2656 39.9694
-127.252 75.4906 7.91433
-123.642 76.0142 9.70635
48.8907 1.67443 86.305
130.448 15.5894 -73.6045
-179.734 46.5135 -40.3172
198.596 13.1796 52.3603
200.49 9.4329 52.2854
113.366 74.8967 23.6861
109.627 75.3442 24.4105
149.57 63.741 -30.6946
145.742 65.3531 -29.5371
-166.874 -45.6709 -47.4221
129.848 19.3532 -72.837
-209.808 43.7058 -21.0827
-206.948 46.1288 -19.3068
126.473 20.2054 -73.3309
-61.8973 -0.371667 85.2924
-59.1985 2.55875 85.4892
[...]
POINT_DATA 10490
VECTORS F double
1.52012e-08 3.4252e-08 8.06936e-09
1.35193e-07 9.65123e-08 -4.44297e-08
1.26646e-07 6.78192e-07 3.16191e-07
5.7405e-08 -5.04566e-09 -2.86416e-08
2.90748e-07 2.69779e-07 -1.43428e-08
1.86374e-07 2.00767e-07 -8.76735e-09
8.43704e-08 2.86225e-08 -7.57614e-08
-1.80222e-06 2.01825e-06 1.08886e-07
1.01688e-06 7.85533e-07 1.68327e-07
1.12702e-06 6.70301e-07 -4.56847e-08
1.26584e-08 7.59052e-08 -4.28594e-08
1.13527e-08 6.08909e-08 -2.20118e-08
9.8008e-08 3.77832e-07 2.04565e-07
-2.24586e-06 3.58171e-06 1.22123e-07
1.43458e-07 1.11656e-07 -3.33794e-09
3.40559e-06 5.63588e-07 -1.66411e-06
4.46413e-06 7.08641e-07 -2.592e-06
-1.25893e-08 2.34998e-08 1.1901e-08
-1.46577e-08 2.27534e-08 1.39562e-08
-3.28752e-05 5.50976e-06 5.08263e-06
-3.1746e-05 5.04909e-06 4.04635e-06
-3.47347e-06 1.95914e-06 -2.966e-07
-3.16027e-06 1.41462e-06 -2.46274e-07
3.07088e-08 2.2496e-07 -1.94288e-07
5.73809e-08 2.51038e-07 -2.30544e-07
1.36647e-08 1.63912e-07 9.62952e-08
-1.60199e-09 1.39612e-07 8.40561e-08
-4.21026e-08 1.75894e-07 2.25983e-07
-1.76752e-07 1.35461e-07 1.407e-07
2.55985e-07 2.16817e-07 -1.97905e-07
5.96877e-07 2.74392e-07 1.1492e-07
3.90344e-07 3.02114e-07 -1.03687e-07
8.70753e-08 2.89481e-06 8.07627e-07
-3.63923e-07 1.41529e-06 3.80404e-07
-1.90536e-06 2.84579e-06 -1.69472e-08
1.28622e-08 2.78618e-08 5.68814e-08
0.00012348 2.91464e-05 6.41469e-05
0.000135342 3.37868e-05 7.21592e-05
3.76859e-08 8.69014e-10 -5.0991e-08
3.22757e-08 -2.30287e-09 -2.32652e-08
6.62995e-07 3.6868e-07 4.25317e-09
2.4771e-08 2.85676e-08 5.95963e-08
3.64696e-07 2.67128e-06 5.14081e-07
-1.41515e-06 3.35384e-06 -3.08241e-07
-2.46971e-08 1.46709e-08 -1.1698e-08
-4.16868e-08 3.75085e-08 1.66647e-08
1.34494e-06 9.17725e-07 -5.36808e-08
1.08785e-06 1.98863e-06 4.09067e-07
-5.24928e-08 1.06356e-07 -7.03664e-08
-4.55452e-08 1.19967e-07 -8.47329e-08
5.55772e-08 1.53129e-07 -5.69916e-08
7.41625e-08 1.62458e-07 -5.42902e-08
9.52006e-07 2.37241e-06 6.95564e-07
9.75665e-07 2.28096e-06 7.86326e-07
-4.00918e-08 9.74497e-08 3.90788e-10
-2.83932e-08 7.39904e-08 4.23901e-09
5.62911e-08 9.6e-08 1.00508e-07
1.78112e-07 3.68167e-08 -6.79316e-08
-2.0273e-08 1.36617e-08 -1.93671e-08
-1.92371e-08 8.54646e-09 -1.78433e-08
-2.6784e-06 3.21179e-06 -2.54084e-07
-2.42174e-06 4.2199e-06 -1.89259e-07
1.15816e-08 8.58627e-08 6.98993e-08
-3.60557e-08 5.05758e-08 8.7727e-08
-1.1589e-08 1.2951e-08 8.05094e-10
1.7165e-05 6.67008e-06 1.80761e-06
-2.11222e-08 3.65074e-08 2.33187e-08
-6.02375e-07 5.27094e-06 -7.74655e-08
1.90566e-07 3.94854e-06 -1.88054e-07
-4.44097e-07 7.96518e-06 6.64274e-07
-3.81725e-06 5.97159e-06 1.02795e-07
-2.39325e-06 4.38289e-06 -1.69043e-09
-1.25608e-06 2.26901e-06 -2.48884e-07
4.5701e-09 4.50801e-08 5.41624e-08
2.74695e-09 1.4171e-08 8.37647e-10
-3.73034e-09 5.2732e-09 -1.05926e-08
2.65594e-07 4.18147e-07 -3.33945e-07
1.05753e-06 1.62395e-06 -2.08323e-07
4.15389e-07 5.9079e-07 -4.35038e-07
1.6343e-10 2.9638e-08 2.89005e-08
-1.00627e-08 1.15246e-08 1.09304e-08
-2.76632e-09 1.18411e-08 2.00462e-09
1.78248e-08 1.59844e-08 3.8069e-08
2.42279e-08 5.7703e-09 3.86524e-08
1.23994e-08 3.1953e-09 2.33148e-08
1.45613e-08 1.87846e-08 3.68315e-08
3.53449e-08 3.18952e-08 7.76715e-08
2.32764e-07 3.1574e-07 -1.12153e-07
3.68592e-08 2.72882e-08 7.27233e-08
2.51189e-07 4.53533e-06 -3.87673e-07
2.16424e-06 2.89381e-06 -2.91559e-07
1.95913e-06 3.40564e-06 -5.59856e-07
-2.39692e-08 1.72253e-07 1.58466e-07
-6.22092e-08 2.54417e-07 2.26709e-07
5.71309e-06 3.86439e-06 2.36932e-06
7.74989e-06 2.97999e-06 5.1383e-07
4.07586e-07 3.6115e-07 -5.15015e-07
1.39701e-06 6.39448e-07 -3.90322e-07
3.8397e-05 2.46621e-05 2.36373e-05
2.64713e-06 9.23897e-07 -5.6416e-08
2.3793e-06 -3.31451e-07 -2.99946e-07
3.8303e-05 2.66067e-05 2.77379e-05
-9.85285e-07 3.929e-07 -1.53047e-07
-1.04695e-06 3.9864e-07 -1.53508e-07
3.24179e-09 1.23087e-08 3.40494e-08
-8.69415e-10 1.71774e-08 3.72366e-08
1.05492e-06 5.72129e-07 9.29618e-08
1.02262e-06 7.43228e-07 -9.75638e-08
6.38536e-08 8.78289e-08 -2.16057e-08
5.93348e-05 3.16497e-05 -4.72257e-05
5.69277e-05 3.04992e-05 -5.03567e-05
3.79253e-08 9.07011e-08 1.50958e-08
4.42094e-08 -2.01919e-08 -1.17627e-11
4.31687e-07 3.75697e-07 2.2461e-07
2.13391e-07 1.42253e-07 9.86459e-08
7.20961e-07 3.92249e-07 -3.00257e-07
8.66489e-07 4.13453e-07 -3.27337e-08
-5.53518e-09 1.23558e-07 -1.19515e-08
1.32668e-07 1.71068e-07 -6.52215e-08
3.60186e-07 2.60043e-06 -9.03916e-07
1.34304e-06 9.56018e-07 7.37147e-08
6.95346e-09 -1.41377e-09 -1.21474e-08
-1.55866e-09 -3.26542e-10 9.52501e-09
3.11106e-05 9.64753e-06 1.15028e-05
3.25338e-05 1.02759e-05 1.28731e-05
-4.28771e-08 5.05246e-08 -1.04162e-07
-2.95384e-08 6.4842e-08 -1.26438e-07
2.78018e-06 1.31468e-05 3.03164e-06
1.26691e-07 1.58921e-07 -2.24207e-07
1.23045e-07 1.8572e-07 -2.43007e-07
3.54353e-08 1.38406e-07 1.58127e-07
7.96168e-08 2.24189e-07 2.51018e-07
2.79603e-06 8.30429e-07 -5.10397e-07
9.0126e-08 7.45315e-06 1.20573e-06
-2.41211e-06 3.72065e-06 5.98435e-07
6.70172e-07 9.5106e-09 -3.14251e-07
2.13236e-07 5.41104e-07 3.29612e-07
2.76058e-07 8.64104e-07 5.04694e-07
-6.19077e-08 8.29338e-08 -1.3494e-07
-6.08706e-08 5.93552e-08 -9.8348e-08
1.24965e-07 2.44226e-07 -1.75805e-07
2.53922e-08 1.5494e-07 -1.04513e-07
-5.03441e-05 2.09229e-05 -2.79145e-05
-4.58025e-05 2.24315e-05 -2.76984e-05
2.82662e-06 1.27782e-06 1.51578e-07
2.43238e-06 1.48815e-06 -7.16606e-08
-4.95705e-07 1.82291e-07 -7.11636e-08
-1.45566e-06 3.52122e-08 4.54072e-07
-5.96646e-07 3.37074e-07 -3.28788e-08
9.3474e-07 1.0756e-06 6.70545e-08
1.97404e-07 2.76468e-07 1.51186e-08
4.61877e-05 5.1573e-05 7.56114e-05
-6.23686e-06 2.93435e-06 1.5449e-06
4.77234e-05 5.1115e-05 8.11265e-05
-2.49116e-09 8.63824e-09 -1.00918e-08
-1.59589e-09 6.85193e-09 -7.60537e-09
2.83178e-05 6.94306e-05 0.000142327
3.12482e-05 6.83359e-05 0.000129275
-5.37214e-10 -1.19217e-10 1.10187e-09
-1.05889e-09 1.08388e-09 2.52633e-09
3.69252e-07 5.61145e-07 -5.03116e-08
2.93428e-07 6.26239e-07 -1.35988e-07
4.09628e-05 3.32166e-05 -3.83625e-05
3.6485e-05 3.53758e-05 -4.52103e-05
2.12612e-07 8.36139e-08 -1.10959e-07
-3.86109e-09 -1.34541e-09 6.71961e-09
2.46925e-07 1.98133e-07 -2.01744e-07
7.66941e-09 1.3425e-07 -1.08103e-07
2.28986e-07 3.87726e-08 -8.52854e-08
-1.22383e-09 1.32821e-07 3.43451e-08
6.04753e-07 3.21936e-07 1.19861e-07
6.44813e-07 3.47493e-07 4.54881e-08
8.82607e-08 1.34648e-07 1.24395e-07
9.11503e-08 7.00924e-09 -5.70536e-08
1.52481e-06 4.01034e-06 -3.75029e-07
4.50684e-05 6.8147e-06 3.2328e-07
-4.57071e-08 2.63219e-07 7.14724e-08
-7.86219e-08 3.65677e-07 9.75071e-08
3.79397e-05 6.51213e-06 -1.13654e-05
4.1234e-05 7.38536e-06 -1.22796e-05
5.0901e-08 9.75721e-08 -2.99366e-08
7.09021e-08 1.96586e-07 -4.04527e-08
-6.94176e-05 2.91056e-05 4.9314e-05
-5.53726e-05 3.24944e-05 5.06498e-05
0.000386974 3.34393e-05 0.000105171
0.000284711 5.21541e-05 0.000169795
-5.62189e-05 2.17944e-05 3.23431e-05
3.13487e-07 2.37182e-07 7.20114e-09
9.37866e-07 5.1055e-07 -1.57846e-07
1.09099e-07 1.85546e-07 -5.41538e-08
8.4108e-07 6.49489e-07 1.57152e-07
6.99797e-08 2.08732e-07 -6.29985e-08
8.25713e-08 1.75941e-07 2.05649e-09
4.25745e-07 -2.01621e-07 4.19888e-07
4.42958e-07 3.1895e-07 -2.72817e-07
4.07705e-07 4.06932e-07 -3.43199e-07
7.62841e-05 2.99049e-05 5.18593e-05
7.92637e-05 2.9345e-05 5.43395e-05
7.1917e-07 -5.06245e-08 5.04962e-07
5.23448e-07 3.06024e-07 7.45222e-09
-8.22167e-08 3.90217e-08 3.55909e-09
-1.15962e-07 6.33713e-08 2.26229e-08
1.34246e-06 5.56564e-05 8.03435e-05
-1.16021e-05 5.18388e-05 7.01881e-05
7.14471e-07 4.2071e-07 2.63842e-07
8.77774e-07 3.50568e-07 2.75866e-07
1.72484e-07 1.56849e-07 7.86606e-08
2.88263e-07 3.69685e-07 1.57262e-07
1.03096e-07 1.0085e-07 -1.34226e-07
1.17551e-07 7.98977e-08 -1.15741e-07
1.80089e-09 1.0687e-08 1.15892e-09
1.39402e-09 1.0484e-08 1.59552e-09
8.89556e-08 6.56905e-08 -9.85278e-08
3.12483e-09 4.32592e-09 -1.1068e-08
-1.44276e-09 6.69006e-09 -7.8317e-09
4.47355e-05 1.71312e-05 -1.65149e-05
8.37431e-07 6.84231e-07 2.91862e-07
8.79713e-07 6.41897e-07 1.27471e-07
3.72995e-05 1.14851e-05 -1.08833e-05
4.19091e-05 1.66973e-05 -1.84821e-05
4.12822e-09 1.48955e-08 -3.18448e-08
1.48964e-10 8.15028e-09 -1.64434e-08
6.1387e-08 2.55295e-07 1.92767e-07
1.87815e-07 2.37717e-07 1.96687e-07
1.57811e-06 1.17841e-06 9.54211e-07
1.95031e-06 1.09428e-06 7.19742e-07
2.28191e-09 7.58096e-09 5.93704e-09
9.36481e-10 8.10645e-09 7.1074e-09
3.43576e-07 2.4134e-07 -5.31984e-08
8.91128e-10 3.48045e-09 5.67423e-09
-2.70294e-08 1.90679e-08 -1.04074e-08
-2.05319e-08 9.6816e-09 3.06025e-08
3.28339e-07 2.49549e-07 1.18038e-09
4.26254e-07 3.30112e-07 1.535e-08
1.02602e-08 -4.0403e-10 2.56593e-08
-3.40648e-09 1.18632e-08 3.82201e-08
4.99992e-10 -4.12651e-09 -1.46623e-08
-2.29804e-06 2.82791e-07 6.28967e-07
5.09189e-08 -1.79444e-08 -4.02867e-09
-2.36504e-06 3.61792e-07 3.05442e-07
8.09093e-07 1.549e-06 2.75528e-07
7.07863e-07 1.00314e-06 1.78517e-07
1.04836e-07 3.14037e-07 1.62111e-07
1.73388e-06 5.58076e-07 -2.79019e-07
4.43665e-07 2.04138e-07 1.33012e-07
4.55674e-07 2.86933e-07 1.31738e-07
1.43092e-07 3.3961e-07 1.55199e-07
-3.44693e-08 1.67677e-07 1.60648e-07
-1.53563e-08 1.772e-07 1.55748e-07
4.13712e-08 1.22025e-08 -4.83292e-08
6.97806e-08 6.69514e-08 -5.35763e-08
2.30433e-07 1.28311e-07 -1.316e-07
1.84254e-06 1.05593e-05 1.79237e-06
6.06377e-09 9.16735e-09 3.37238e-08
1.37961e-09 8.14474e-09 2.36452e-08
1.15282e-06 7.85723e-07 -1.8676e-07
7.6836e-07 1.20826e-06 1.58686e-08
1.99373e-06 1.30655e-06 -7.2576e-07
1.34575e-06 9.98289e-07 -5.71164e-07
1.147e-06 1.1318e-06 4.3047e-07
3.74123e-07 3.14544e-07 -8.76544e-09
3.45623e-07 2.79732e-07 7.40698e-08
2.95392e-07 2.32522e-07 -2.2182e-07
-1.19317e-08 2.0672e-08 8.23324e-09
-8.01919e-09 2.58242e-08 -1.83894e-09
-8.55067e-09 2.53868e-08 -4.0462e-09
7.27588e-08 3.00257e-08 -7.83346e-08
1.44259e-08 5.63124e-08 -8.58746e-08
7.46987e-08 1.14085e-07 -1.8217e-07
-1.08307e-08 6.62678e-08 -7.30822e-08
1.38217e-07 2.14507e-07 1.59323e-08
2.60598e-06 6.03504e-06 -4.36819e-07
2.22799e-08 1.76819e-08 5.76799e-08
1.6015e-08 1.71461e-08 5.87579e-08
7.5582e-07 8.14336e-08 2.29067e-07
3.9168e-06 1.33033e-06 -9.43125e-08
1.46806e-07 2.59477e-07 -1.04724e-07
1.97329e-07 1.53088e-07 -1.0002e-07
2.34454e-07 4.83405e-07 2.77787e-08
5.44551e-08 9.07081e-07 7.07424e-08
1.9152e-08 6.99551e-08 7.62694e-08
1.41842e-08 7.16138e-08 7.00415e-08
2.06742e-08 2.53305e-08 -4.45628e-08
1.80123e-08 5.86611e-09 -1.91416e-08
1.38968e-08 4.11255e-09 2.20125e-08
1.57795e-08 1.26226e-08 3.7122e-08
1.42423e-08 1.93653e-08 -3.66459e-08
9.87733e-06 4.67182e-06 1.27057e-06
2.58556e-05 2.34457e-05 -1.94566e-05
-4.33831e-09 1.93906e-07 2.42458e-07
-1.02777e-07 1.57144e-07 1.89482e-07
8.79619e-07 1.68706e-06 -2.91296e-07
8.08603e-07 1.95747e-06 -2.49778e-07
0.000255992 2.81338e-05 8.2381e-05
0.000231 3.30887e-05 9.76006e-05
2.4233e-05 2.21421e-05 -1.87529e-05
9.58804e-06 7.68563e-06 3.93081e-06
-8.89238e-07 7.55444e-07 -1.85451e-07
-9.10236e-07 5.888e-07 -1.64484e-07
6.16081e-06 4.62752e-06 1.83017e-06
3.07834e-05 2.56058e-05 2.4828e-05
2.71205e-05 1.95125e-05 1.84597e-05
7.09123e-10 -4.79153e-09 1.72653e-08
-1.9767e-08 1.53028e-08 -1.49648e-08
-1.28161e-07 5.88905e-08 5.49712e-08
2.80088e-05 1.85472e-05 1.54092e-05
-2.19393e-07 6.45529e-08 -5.60154e-08
-1.73149e-07 8.21182e-08 2.48102e-08
-4.58034e-07 2.81392e-07 -2.05758e-07
-2.81244e-07 1.58599e-07 -1.22117e-07
-2.15645e-07 8.24563e-08 -1.19188e-08
7.39789e-07 5.56089e-06 -2.60318e-07
9.40622e-09 5.69438e-09 -7.01797e-09
9.69766e-09 7.39939e-09 -1.13903e-08
-1.46046e-08 3.48821e-08 -1.98763e-09
6.36747e-09 2.5794e-08 1.65317e-08
-6.00777e-09 1.51754e-08 9.86296e-09
-1.6685e-08 3.05801e-08 1.16561e-08
-2.04871e-08 2.66149e-08 6.31688e-09
-3.1318e-08 5.721e-08 -7.44648e-09
4.37709e-08 5.95489e-09 -5.07654e-08
2.87059e-07 3.35765e-07 4.29023e-08
2.91387e-07 1.64017e-07 -1.12814e-07
2.12803e-07 2.01939e-07 2.07478e-08
-2.28979e-08 9.67037e-08 -1.38e-08
9.83002e-07 5.23729e-07 -5.82678e-08
-3.93373e-06 3.37673e-06 2.1115e-06
-2.42467e-06 3.51339e-06 2.16175e-06
-1.09372e-06 8.79832e-08 3.42374e-07
-9.32897e-07 -4.8898e-08 5.93634e-07
1.62214e-06 8.27542e-07 -1.0495e-07
1.47269e-06 2.68549e-07 5.11054e-07
-1.30553e-08 8.36096e-09 4.92849e-08
-5.54228e-07 -3.13044e-08 -5.49129e-07
-9.90516e-07 6.78161e-08 -4.97602e-07
-3.79557e-09 3.21887e-10 2.42543e-09
-1.0043e-08 6.63113e-09 1.2162e-08
-9.85377e-09 -9.27252e-10 -3.99103e-09
1.91299e-07 5.43567e-07 1.36179e-07
1.36462e-07 5.29351e-07 1.14573e-07
-2.53974e-08 2.08155e-08 1.96521e-08
3.52134e-07 2.48764e-07 -2.76169e-07
-7.43971e-08 2.3091e-07 1.05801e-07
-1.72047e-06 2.28446e-06 3.72002e-07
-1.63892e-06 2.20514e-06 3.05148e-07
-1.53218e-07 2.08906e-07 1.0501e-07
-1.2509e-07 1.12862e-06 -7.20483e-08
-6.52628e-08 1.17824e-06 -1.05759e-07
3.15368e-07 6.13253e-07 -4.6809e-08
-2.46081e-08 2.52321e-08 3.09631e-08
1.5844e-06 3.03915e-06 -1.14911e-06
1.94009e-06 1.98275e-06 -4.06336e-07
-2.97029e-07 2.19604e-06 -1.0824e-06
-2.98295e-08 3.41276e-09 -1.21335e-08
4.32572e-05 3.51549e-05 4.98198e-05
3.11196e-05 3.3668e-05 4.4732e-05
6.01672e-09 7.80572e-12 -1.47641e-08
2.56213e-09 7.89849e-08 3.43418e-08
5.36492e-05 3.22912e-05 -4.03128e-05
1.44526e-08 1.3082e-07 6.29488e-08
2.24659e-08 2.66974e-08 5.29044e-08
3.79007e-08 2.28482e-08 5.31687e-08
3.71623e-07 3.99555e-07 -3.45443e-07
2.46203e-08 2.33233e-08 4.20241e-08
2.3686e-06 7.24517e-06 -1.45894e-06
4.14461e-06 2.71073e-06 -1.14988e-07
1.18e-08 6.37551e-08 8.20537e-08
-1.32549e-08 7.32742e-08 1.94957e-08
-2.34289e-08 1.32854e-08 2.70401e-08
-1.19385e-08 7.05917e-10 7.54462e-09
8.07574e-06 1.75573e-06 -8.49571e-07
1.0284e-05 2.59835e-06 -4.31021e-06
-2.37955e-06 1.78491e-06 1.30405e-07
-1.6487e-07 4.19434e-07 5.30612e-08
2.79579e-06 1.0979e-06 -2.59287e-07
-5.70361e-08 8.0771e-08 6.15456e-09
-2.32158e-08 9.38582e-08 -6.03429e-09
-1.73227e-06 9.70655e-08 7.08185e-07
-2.05734e-06 6.2114e-07 -7.85936e-07
-1.05601e-06 2.60273e-07 -8.9518e-08
-1.23963e-06 1.53949e-07 -4.08247e-07
-7.30311e-08 1.01303e-07 -6.60981e-08
-4.49102e-07 4.0733e-07 1.02088e-08
5.23566e-07 1.73991e-07 -2.77206e-07
5.23766e-07 1.93773e-07 -2.24368e-07
-4.71215e-07 4.19069e-07 1.59694e-08
6.65033e-07 5.0154e-06 8.0941e-08
1.88947e-06 4.15943e-06 3.56912e-08
1.25357e-06 3.41933e-06 1.76474e-07
1.19594e-08 1.48049e-08 5.18609e-08
8.99243e-06 1.92963e-06 4.84114e-07
1.01809e-05 2.20663e-06 -1.87315e-06
-1.46882e-06 6.24097e-06 -1.08093e-06
1.13303e-08 -1.50542e-09 1.42855e-08
2.02533e-06 3.92358e-06 7.96056e-08
2.23174e-06 1.11753e-05 6.32049e-06
5.31914e-06 5.9141e-06 2.47497e-06
1.24114e-05 1.09275e-05 5.13589e-06
9.51724e-08 4.01604e-07 6.43626e-08
5.53499e-08 5.3659e-07 4.39795e-08
-2.60411e-07 1.39512e-06 1.5693e-07
-2.06577e-08 7.38026e-07 8.39414e-08
7.1567e-07 3.11144e-07 1.62522e-07
3.23492e-07 5.28947e-07 9.6869e-08
2.01296e-06 6.86061e-07 -1.95265e-08
2.8537e-06 1.25465e-06 5.58304e-07
-3.32758e-08 7.09846e-10 2.53554e-08
-2.82777e-08 -2.46632e-09 1.23843e-08
7.26152e-08 2.00934e-08 -8.3364e-08
5.65118e-08 9.91838e-09 -5.11776e-08
-1.95412e-08 6.54825e-08 9.86764e-08
1.2809e-08 5.37405e-08 1.04999e-07
-1.50098e-08 5.55907e-08 9.23311e-08
2.71299e-07 1.03642e-07 2.06696e-07
4.1317e-07 2.56385e-07 -8.10131e-08
5.92834e-07 2.8007e-07 1.45598e-07
2.35911e-08 7.69605e-08 -8.3739e-08
1.28338e-08 7.80844e-08 -7.96407e-08
-5.66141e-08 5.95037e-07 -3.4222e-07
2.19413e-08 3.39256e-07 -1.99772e-07
-1.77279e-07 2.788e-06 -5.14065e-07
-7.83749e-07 1.88493e-06 -3.48636e-07
-1.43689e-08 6.44225e-08 -5.73108e-08
2.10218e-07 -1.26382e-08 -3.94003e-08
-1.91397e-08 5.85661e-09 1.14543e-08
1.28302e-08 3.46871e-08 -5.26916e-08
-1.76628e-06 3.73112e-06 -1.62286e-07
-7.85749e-08 3.72795e-07 -2.76909e-07
-1.41546e-07 3.22878e-07 -2.27727e-07
2.62155e-05 3.72789e-05 3.58341e-05
1.79897e-06 9.50755e-07 1.44494e-06
0.000113519 1.01808e-05 -5.0599e-07
0.000131511 1.12964e-05 -2.08885e-05
9.45456e-05 1.18015e-05 -3.57761e-05
0.00012127 1.12134e-05 -1.48758e-05
1.88712e-06 9.16908e-07 1.53749e-06
2.51335e-05 2.84544e-05 2.63436e-05
2.38458e-05 2.82842e-05 2.40779e-05
4.37323e-08 3.03299e-08 -8.13851e-08
-2.42086e-08 5.71633e-09 -3.06131e-08
-1.25213e-08 4.67749e-09 -5.09219e-08
4.94189e-08 2.00077e-08 -6.83593e-08
2.23076e-08 1.01483e-08 -3.50389e-08
1.4634e-07 2.57609e-07 9.13788e-08
1.0357e-07 3.91242e-07 2.38716e-07
-6.75518e-07 9.74725e-08 2.29108e-07
-2.42657e-05 8.81362e-06 -8.21075e-06
-2.2645e-05 1.20065e-05 -1.30894e-05
-9.10798e-07 7.81392e-07 -2.17168e-07
2.1653e-07 2.09605e-07 -1.69653e-07
3.51519e-07 3.9452e-07 1.03429e-07
1.89413e-07 5.37497e-07 -2.82988e-07
1.78378e-07 2.22477e-07 -1.48339e-07
1.14628e-07 4.89955e-09 6.94142e-08
9.38428e-08 5.10387e-08 1.21931e-07
5.86166e-08 3.07421e-08 7.86229e-08
1.28543e-06 1.68448e-06 -1.18981e-07
1.41578e-06 1.9208e-06 -1.21339e-07
-5.03052e-05 2.07828e-05 -3.0588e-05
-1.04489e-07 2.30015e-07 6.23583e-09
2.97236e-08 6.17957e-09 2.02273e-08
-2.79933e-08 6.25015e-08 1.13033e-07
6.82815e-07 2.04454e-06 -2.19242e-07
7.02607e-07 1.36429e-06 -1.73544e-07
-5.92448e-08 1.04151e-07 -1.12657e-09
1.22704e-07 1.93183e-07 2.05477e-09
-1.18239e-07 1.83291e-07 -1.24788e-08
-2.00052e-05 1.21459e-06 -1.07498e-06
5.48105e-09 1.15535e-07 -5.52281e-08
-1.16419e-09 9.81672e-08 -4.81572e-08
-8.23992e-06 -8.84136e-07 -2.78335e-06
8.23364e-07 7.87445e-07 -2.91243e-07
-1.49863e-05 4.29691e-06 4.16185e-06
-1.12787e-08 1.02881e-07 -3.58313e-10
1.81423e-06 6.48773e-07 1.82192e-07
1.97357e-06 5.27022e-07 5.01436e-07
2.59322e-09 6.92574e-08 -3.64651e-08
-9.85441e-09 7.95819e-08 2.28862e-08
1.16267e-07 2.09406e-07 -1.26809e-07
1.60845e-08 -8.35516e-09 -1.85303e-08
1.60399e-08 2.00986e-09 -3.69174e-08
4.5384e-07 4.86159e-07 -1.39616e-07
5.69106e-07 4.08421e-07 6.28583e-08
2.89984e-06 2.38209e-06 9.92651e-07
3.66509e-05 3.85106e-05 4.94192e-05
3.02276e-05 3.8449e-05 4.56639e-05
1.64578e-08 8.32049e-10 -1.31061e-09
-1.3557e-08 4.75739e-10 -1.81436e-08
2.38333e-05 3.32396e-05 3.73366e-05
3.61476e-07 1.00982e-07 1.53214e-07
1.78878e-07 1.49836e-07 8.40536e-09
-2.21931e-08 5.59494e-08 -2.17862e-09
-9.50692e-08 1.77478e-07 1.59549e-07
-8.81367e-08 1.94434e-07 1.59918e-07
-5.99566e-07 3.25895e-06 2.67212e-07
-8.64847e-08 3.93985e-08 3.54988e-08
-2.53187e-08 1.16005e-07 9.06527e-08
-6.19558e-05 3.56089e-05 -5.55802e-05
-4.85809e-05 2.98521e-05 -4.30512e-05
-7.48505e-07 3.28391e-06 2.81751e-07
1.04471e-06 1.26541e-06 -2.68562e-07
-2.83753e-07 2.7399e-06 3.58077e-07
-2.278e-09 -2.88662e-10 -2.48999e-08
5.23642e-08 7.2821e-07 -2.49987e-07
-3.96283e-06 3.67225e-05 -3.56241e-05
2.55603e-07 3.58282e-07 -4.83406e-08
9.80524e-07 6.74126e-07 7.08028e-07
6.21078e-08 1.09081e-07 -5.54292e-08
-3.26661e-08 4.67686e-08 2.77022e-08
8.94405e-09 2.43929e-09 -5.23669e-09
-3.67571e-09 3.55058e-09 -2.19922e-08
-1.43768e-05 2.13859e-05 -2.09316e-05
-3.03819e-08 6.18182e-08 9.30076e-08
1.40291e-06 5.20378e-07 -2.18321e-07
-5.06253e-09 -2.51781e-09 1.53181e-09
6.15823e-08 1.25227e-07 1.35869e-07
1.96872e-08 2.16377e-09 2.20127e-08
2.00157e-05 2.65658e-05 -1.88977e-05
2.69475e-07 8.51227e-08 -1.04496e-07
1.19042e-05 2.84773e-05 -2.33619e-05
0.000536188 1.70164e-05 -0.000130583
0.000546801 2.17265e-05 -0.000121349
1.38631e-08 9.52342e-08 9.05429e-08
9.98213e-06 7.15919e-05 -0.00018523
1.15105e-08 1.07589e-07 8.69614e-08
-5.69246e-08 7.42735e-08 1.42114e-08
-6.64904e-08 5.40368e-08 -6.35262e-09
4.0292e-08 1.48683e-07 1.24621e-07
1.1102e-06 1.14955e-06 -3.64681e-07
1.38479e-08 2.18309e-09 -1.20482e-08
3.53803e-07 2.82251e-07 -1.06095e-07
3.37393e-05 4.2544e-05 -4.59736e-05
3.56845e-07 1.97778e-07 7.083e-08
3.61685e-07 1.58709e-07 1.38149e-07
3.70498e-07 1.89607e-07 1.16181e-07
3.17212e-05 4.26648e-05 6.09319e-05
-9.8069e-08 5.24828e-08 -2.06504e-08
-8.6163e-08 4.51676e-08 -5.12704e-08
-1.65374e-07 1.0914e-07 -1.73788e-08
-2.97972e-07 2.64577e-07 -7.54882e-08
3.69025e-05 4.66353e-05 6.46639e-05
7.81077e-06 2.55594e-06 -1.80507e-07
1.78254e-06 5.69293e-06 -3.11675e-06
1.72002e-06 4.92084e-06 -2.53105e-06
0.000338372 2.14165e-05 -8.72376e-05
0.000323815 2.31156e-05 -8.21896e-05