# vtk DataFile Version 2.0
S, Created by Mohamad Ibrahim Cheikh
ASCII
DATASET UNSTRUCTURED_GRID
POINTS 10490 double
-223.577 20.3386 -34.7914
-223.731 23.2841 -32.7645
-130.493 -29.3162 69.2804
-194.384 -37.8826 -41.0225
-207.475 29.5044 40.0419
-235.879 27.3958 13.4743
-191.275 -39.7122 -41.0813
14.4267 -3.15735 87.7983
-191.081 39.2132 -41.6673
-193.422 36.925 -42.4283
-251.147 3.21157 -3.38036
-251.007 5.46179 -0.714686
-204.328 29.2952 -42.123
18.6299 -1.55781 87.7444
-201.231 30.3624 -43.1793
-151.366 68.7336 -14.6498
-148.585 69.9422 -12.2122
241.381 21.7603 -11.7088
240.378 24.3444 -8.78241
39.8939 72.8529 -47.3456
43.7194 72.1536 -47.9984
45.4656 -3.22225 -86.4901
49.3233 -1.52742 -86.2776
-145.563 -45.4971 -55.4967
-142.059 -46.9219 -55.422
-191.797 -27.3662 49.9134
-189.472 -30.0442 49.4585
-64.3393 -67.8378 51.3345
-66.4788 -66.0176 53.3349
-121.231 -41.6818 -64.8635
-205.498 44.604 24.1727
-208.437 41.8679 25.9224
-64.8769 -22.6232 81.9566
-61.2386 -23.946 81.9235
44.3352 4.15248 86.5223
-201.399 -44.9178 27.5762
-53.4005 82.3602 -24.7321
-50.3848 81.9784 -26.6972
-109.541 -78.4117 -11.248
-105.515 -79.2424 -10.0781
-195.504 42.6358 35.3084
-200.947 -43.0034 30.8383
-54.4312 -15.3552 84.531
3.53335 8.23746 87.6049
226.255 36.0723 -13.2452
223.494 37.2785 -15.4583
-147.01 22.4127 -67.7917
-143.846 23.6641 -68.1962
-167.021 -43.0246 -49.7751
-163.503 -43.4796 -50.7994
-215.267 -7.15979 -44.9369
-215.167 -3.16403 -45.4514
-105.644 -17.6427 77.8866
-104.108 -21.1783 77.2562
-247.959 -12.5238 7.72451
-247.222 -12.2252 10.5722
-226.224 -18.8473 33.5126
-129.026 -40.8341 -63.5482
238.447 4.07546 -27.6833
236.191 2.11798 -30.1592
30.7087 -3.76434 -87.2604
26.7342 -2.04053 -87.4776
-224.961 -22.5408 32.2497
-47.6602 -75.8724 41.3435
-235.553 -26.7707 15.3058
-110.389 51.1365 -60.3088
-237.919 -25.2895 13.1987
-16.8363 -1.52054 -87.7894
-20.0213 -4.05111 -87.6271
25.3109 7.45593 -87.2352
27.4029 3.65534 -87.3997
25.4745 1.67379 -87.5314
45.9839 -6.34533 -86.2836
-242.159 -16.9753 16.6254
249.587 -5.36911 -9.40943
249.111 -2.30256 -11.8807
-169.144 48.1629 43.8366
30.4476 -13.4969 -86.3037
-165.519 47.932 45.7422
-244.371 -14.4433 14.9727
243.986 6.92789 20.1942
244.544 3.5643 20.2422
-218.53 -34.2529 26.9077
-142.146 -69.411 21.2688
-139.63 -70.7398 18.7861
-221.096 -32.0565 27.0477
-157.971 -59.8002 33.3573
-205.04 32.4599 39.2837
-154.319 -61.3639 32.6014
21.3252 7.32874 87.3763
-119.089 18.4911 75.2711
-116.418 20.572 75.2427
25.5782 -59.034 64.6443
29.1133 -57.6636 65.6897
-134.593 55.0182 -49.9915
-136.896 52.5352 -51.8616
-177.096 57.9153 23.4529
-176.707 59.3866 19.8568
-70.1878 65.0874 -53.8934
-62.7744 16.9222 -83.5176
-66.3883 16.9212 -83.175
-66.6467 66.6104 -52.5666
124.47 57.7433 50.1292
121.037 58.3493 50.4554
-132.441 -69.8472 26.7932
-132.815 -68.0012 30.987
-188.873 35.1149 46.2975
-185.126 37.2841 46.4542
-232.727 13.1733 -30.6499
-60.2386 75.0012 40.9213
-61.5526 76.5189 37.7492
-231.928 16.7975 -29.6018
-175.271 -46.957 -42.1659
-178.793 -11.2334 60.8611
-181.8 -8.37687 60.2274
-195.826 53.7498 12.649
-198.381 52.0629 14.6696
-195.137 -6.40496 -55.1456
-196.111 -2.36565 -55.0434
-155.759 25.0296 64.3992
-159.474 22.4773 64.2271
-196.21 -54.5515 -7.39852
-193.182 -56.048 -5.79665
-91.3794 75.1607 -32.7498
-87.4079 75.5331 -33.2169
-39.231 -78.9679 -36.3268
-42.7322 -77.6551 -38.6021
-35.7253 20.4636 -84.6699
-119.251 -59.0791 -50.1259
-116.056 -58.3917 -51.8209
-103.566 -58.9128 54.4069
-107.461 -57.2223 55.2794
-176.101 46.9005 -41.8043
26.905 13.9415 -86.3771
23.8093 15.7547 -86.1765
-175.609 44.5874 -44.5014
-89.4469 -39.5959 72.0877
-93.3169 -38.4611 72.1014
-1.7066 -75.0133 -46.0071
2.63242 -75.2493 -45.6146
-158.023 -33.1988 -59.8715
-154.737 -36.6336 -58.9116
26.1186 72.7297 48.6916
28.5518 70.7071 51.4266
-166.605 38.801 53.2929
-169.013 36.4255 54.0362
126.649 60.2624 46.3537
125.01 62.2377 44.2401
55.9263 20.2529 83.372
-158.158 12.6364 67.2446
-155.547 9.85441 68.4448
-44.3415 73.1186 -46.443
70.994 53.0534 -65.6679
-41.6777 74.7967 -44.009
222.064 -27.8283 -30.5324
225.276 -26.0124 -29.2251
-17.8468 79.1299 -37.9929
-20.5723 77.8553 -40.3823
247.477 -7.06406 13.9944
245.671 -9.0724 16.5072
-182.896 19.85 57.0489
-181.354 22.6925 56.5899
-55.8936 68.3781 51.8262
-53.6202 70.2377 49.5849
-221.675 26.3864 -32.118
245.289 -12.7014 14.7128
-123.339 -44.6617 -62.3448
-128.466 -46.9016 -59.3608
-126.785 -44.2471 -61.7916
-219.064 -11.0545 41.7912
-206.374 49.8763 -6.48228
-208.059 48.5136 -9.51806
-173.563 -35.1404 53.1135
-196.134 -34.8662 -42.6453
-56.8527 10.6053 85.0635
-99.8094 80.6272 4.85837
-149.824 -21.4704 67.3408
-153.215 -21.7171 66.3201
-105.899 79.7823 2.40221
-103.569 80.0027 5.50416
-208.26 -1.82621 -49.3009
-211.703 -0.428109 -47.5051
7.30804 76.3316 -43.7144
8.98301 74.5966 -46.5776
-19.841 85.8439 -18.0729
-22.9801 85.0371 -21.1666
12.7502 74.1435 -47.1894
-209.321 34.9057 -34.0774
-209.436 37.4777 -31.1319
-243.67 12.2889 -17.9905
-206.003 40.0859 -30.6845
-237.952 16.7277 23.0655
-240.125 13.534 22.3944
-198.674 34.6965 41.3237
-44.0948 -51.8629 -69.3988
-47.9396 -52.1819 -68.8453
-65.1913 78.2072 -33.2763
-62.1095 79.2041 -31.5978
-198.911 37.6913 38.4623
-195.384 39.982 38.3623
193.194 51.8475 -22.051
191.209 51.6119 -24.5778
-17.4617 72.2355 -49.8868
-16.0034 70.5394 -52.3148
-160.721 -8.68102 67.1276
-158.268 -5.14729 68.1966
-159.181 -12.1862 67.0319
-155.589 -13.9528 67.7165
-181.218 -39.3691 -46.6204
-187.069 -34.895 -47.3487
234.201 -8.19823 31.0077
231.367 -8.83971 33.3482
-185.725 -37.806 -45.7344
-220.423 -36.3319 -21.8073
-223.2 -33.1948 -23.2993
-74.587 69.4771 47.2845
-199.257 43.3644 -31.6641
-202.422 40.5102 -32.9605
-79.276 71.8682 42.5386
-75.4716 71.6514 43.7346
-199.863 -47.1007 -25.2
-196.405 -49.1628 -24.5819
-156.239 -38.5659 57.1672
-155.217 -34.6072 59.9725
-162.925 56.2484 -36.4729
-159.781 58.0778 -35.2892
245.94 -16.0778 8.95228
246.756 -13.0534 10.9095
-202.194 25.1214 -45.9091
246.469 -16.6406 5.45929
-222.674 -40.7297 -3.81014
-219.563 -42.6766 -4.53649
-225.915 36.4516 -12.9115
-224.091 36.21 -16.8757
-228.9 -34.8682 10.6497
-231.376 -33.5774 7.89103
-225.472 -37.7615 9.69484
119.594 74.8234 19.8588
-172.164 -51.1021 -38.7774
115.4 75.6378 19.8117
47.9066 12.1518 -85.5298
51.4947 10.7609 -85.4608
-180.222 -22.1785 57.2326
-179.962 52.3165 -32.2785
-165.456 0.845586 66.2696
-168.58 2.82221 65.2432
-181.021 -17.4209 58.5544
36.4526 -59.7563 63.3285
37.7867 -57.2096 65.5458
-159.985 -59.9395 -31.9003
-182.768 -21.7987 -56.3839
-184.314 -18.0317 -57.0936
-11.9511 14.9688 -86.6167
-188.59 -54.9979 19.1011
-192.466 -53.1212 19.6699
-145.949 9.32814 -71.0569
-143.745 12.1275 -71.1842
-174.386 52.4088 35.695
-173.443 50.7089 38.5954
-187.19 39.7066 -43.3293
-231.501 33.4932 -7.79789
-229.095 35.9677 -4.96018
-234.906 30.8691 -5.9389
241.404 7.72072 23.4444
239.892 10.8366 24.102
240.609 13.4016 21.8298
-138.88 -61.8304 -39.4921
-138.123 -60.1632 -42.2926
-141.496 -58.2515 -43.584
-200.351 -41.1651 -33.6902
-218.717 20.1136 -38.5061
-52.7087 8.98666 85.5751
-56.6799 -81.1832 27.5676
-60.1943 -81.4609 25.7781
-152.615 56.1691 41.6831
-153.418 58.0437 38.6427
-189.414 -9.90042 -57.039
-186.067 -8.88109 -58.5359
64.9101 -8.71366 84.5709
67.8934 -7.08327 84.4363
-196.835 -37.2202 40.1896
-200.415 -34.6105 40.3554
-180.668 -48.2458 -37.6841
-174.532 -52.0917 -36.0702
-215.619 -38.5089 23.8558
-218.655 -36.415 23.76
-178.254 -50.9819 -35.4213
-121.65 47.8996 -60.3145
-71.5253 59.4095 59.9014
26.8711 -68.3025 54.6843
24.8094 -66.5892 56.8728
-87.2023 -8.60609 -82.0911
-84.0215 -6.30201 -82.7041
-33.9039 85.6827 -16.1784
-37.3851 85.1678 -17.8697
-75.3151 59.9331 58.801
-117.713 48.9115 -60.4585
67.0994 -10.9738 -84.0973
63.3504 -11.5786 -84.3717
-122.38 44.6934 -62.5529
-76.4047 63.9132 -54.2622
-79.8975 64.1348 -53.3777
-210.937 -46.4386 -11.8322
-207.911 -47.2775 -14.716
-70.3825 -66.906 51.5859
-82.6455 61.6379 -55.7543
181.006 57.5722 -20.4503
187.794 54.742 -20.727
-57.9827 -57.7712 -63.205
-60.246 -59.9507 -60.8732
185.032 56.5053 -18.9617
-52.2237 4.87933 85.9435
170.803 -60.94 -21.4145
166.657 -61.8364 -22.799
-242.16 -11.231 20.9366
-241.443 -7.71464 23.397
231.623 25.8609 -22.5154
229.371 25.18 -25.8604
225.985 27.6873 -26.9258
-235.384 -18.97 -24.5115
-234.85 -16.6287 -26.7374
-226.069 27.1602 -27.372
-222.953 28.4602 -29.1243
-220.77 31.3746 -28.1509
-250.634 -7.29577 -0.17834
-176.056 45.3025 43.553
58.701 51.2341 -68.5361
59.771 48.4045 -70.4529
128.117 68.38 32.5365
131.608 68.3052 30.9489
-176.948 47.6084 40.5471
-181.049 46.7521 39.3082
18.7051 -86.418 15.2673
142.038 69.3646 -21.5067
141.104 68.3957 -25.068
23.2385 -86.1703 15.8921
181.098 -44.0245 42.3149
25.6369 -86.6619 12.3797
-189.028 21.639 -53.8622
-189.448 17.8931 -55.0433
-212.326 -45.0147 14.0792
-120.852 -47.0057 -61.2074
-24.3199 -37.2753 79.2599
52.3315 18.5159 -84.0588
55.8446 16.7295 -84.1565
-25.2893 -41.1242 77.2949
-119.136 -6.54532 -77.2234
-115.757 -7.76172 -77.7382
-200.052 16.4676 50.7252
-215.148 -43.2645 14.3198
-153.443 33.017 61.4107
-156.871 31.3425 61.2276
-157.694 28.1909 62.488
-79.9673 -83.4309 0.603063
-63.5381 72.638 -44.4236
-62.7422 70.6015 -47.7229
-79.8046 -83.3553 -4.02093
-209.642 -18.6823 44.8797
-60.3426 71.2361 47.1553
-205.671 -19.6755 46.6689
-191.283 -46.3887 33.3531
-190.154 -45.0079 35.9358
-195.135 47.321 29.032
-192.217 -42.6383 37.45
-97.7081 19.7547 78.6443
-94.1297 20.9691 78.8639
-195.846 -41.873 35.9826
-247.679 -8.81274 12.4831
188.065 -42.0219 40.5954
184.93 -44.2656 39.9694
-127.244 75.4923 7.9135
-123.631 76.0168 9.70207
48.8883 1.67621 86.3051
130.447 15.5898 -73.6045
-179.731 46.5146 -40.3175
198.596 13.1797 52.3604
200.49 9.43299 52.2854
113.364 74.8968 23.6868
109.625 75.3448 24.4098
149.569 63.7413 -30.6947
145.741 65.3533 -29.5375
-166.874 -45.6708 -47.4222
129.847 19.3536 -72.837
-209.808 43.706 -21.0829
-206.947 46.129 -19.307
126.472 20.2058 -73.3309
-61.8967 -0.36666 85.2925
-59.1967 2.5629 85.4892
[...]
POINT_DATA 10490
VECTORS F double
1.41685e-08 3.30128e-08 8.15526e-09
1.3508e-07 9.56809e-08 -4.49286e-08
1.27187e-07 6.82622e-07 3.18182e-07
5.81914e-08 -5.84211e-09 -2.83628e-08
2.91547e-07 2.70554e-07 -1.44082e-08
1.87693e-07 2.02203e-07 -8.85323e-09
8.54402e-08 2.83296e-08 -7.60888e-08
-1.8018e-06 2.01599e-06 1.08745e-07
1.01852e-06 7.86266e-07 1.68113e-07
1.12854e-06 6.71267e-07 -4.56755e-08
1.27855e-08 7.65489e-08 -4.3469e-08
1.13821e-08 6.10764e-08 -2.22523e-08
9.79131e-08 3.79041e-07 2.05465e-07
-2.24271e-06 3.5691e-06 1.21664e-07
1.43363e-07 1.12168e-07 -2.92406e-09
3.40531e-06 5.69727e-07 -1.63467e-06
4.45803e-06 7.12703e-07 -2.55889e-06
-1.23477e-08 2.31586e-08 1.18751e-08
-1.4407e-08 2.24256e-08 1.38847e-08
-3.17635e-05 5.39869e-06 5.03028e-06
-3.07334e-05 4.86426e-06 3.88473e-06
-3.44421e-06 1.94078e-06 -2.93971e-07
-3.13317e-06 1.39857e-06 -2.44056e-07
3.10133e-08 2.26708e-07 -1.95817e-07
5.78462e-08 2.53096e-07 -2.32431e-07
1.31258e-08 1.65279e-07 9.67909e-08
-2.21484e-09 1.4091e-07 8.45575e-08
-4.25451e-08 1.77082e-07 2.27483e-07
-1.78687e-07 1.36068e-07 1.41157e-07
2.57422e-07 2.1807e-07 -1.99037e-07
5.9746e-07 2.74419e-07 1.15472e-07
3.90461e-07 3.02305e-07 -1.0388e-07
8.64786e-08 2.89719e-06 8.08117e-07
-3.63307e-07 1.42325e-06 3.82762e-07
-1.89817e-06 2.83102e-06 -1.6788e-08
1.29077e-08 2.82817e-08 5.76079e-08
0.000120355 2.7799e-05 6.07557e-05
0.000132147 3.24236e-05 6.90274e-05
3.84905e-08 8.41999e-10 -5.17607e-08
3.29406e-08 -2.37251e-09 -2.35704e-08
6.63472e-07 3.6938e-07 3.72897e-09
2.49765e-08 2.89637e-08 6.03138e-08
3.57638e-07 2.6727e-06 5.13696e-07
-1.41393e-06 3.34057e-06 -3.0713e-07
-2.42789e-08 1.43815e-08 -1.16091e-08
-4.10537e-08 3.69516e-08 1.64397e-08
1.34771e-06 9.18329e-07 -5.42024e-08
1.09417e-06 1.97639e-06 4.03246e-07
-5.36065e-08 1.07169e-07 -7.06113e-08
-4.66587e-08 1.20823e-07 -8.5027e-08
5.56284e-08 1.54118e-07 -5.71785e-08
7.40769e-08 1.63461e-07 -5.43114e-08
9.5276e-07 2.37592e-06 6.96406e-07
9.80753e-07 2.28613e-06 7.88507e-07
-4.09603e-08 9.94405e-08 2.20923e-10
-2.89533e-08 7.52107e-08 4.05889e-09
5.69966e-08 9.74392e-08 1.01902e-07
1.79655e-07 3.61621e-08 -6.78941e-08
-2.01046e-08 1.34668e-08 -1.92193e-08
-1.90375e-08 8.31398e-09 -1.76691e-08
-2.66866e-06 3.18056e-06 -2.5219e-07
-2.41471e-06 4.17654e-06 -1.87774e-07
1.14014e-08 8.72129e-08 7.069e-08
-3.66745e-08 5.09182e-08 8.82665e-08
-1.18231e-08 1.29448e-08 3.57083e-10
1.68227e-05 6.65871e-06 1.87607e-06
-2.15678e-08 3.71499e-08 2.35725e-08
-6.00509e-07 5.23439e-06 -7.65631e-08
1.78313e-07 3.93398e-06 -1.86862e-07
-4.71015e-07 7.83984e-06 6.53331e-07
-3.77424e-06 5.89055e-06 1.0148e-07
-2.38304e-06 4.33867e-06 -1.94763e-09
-1.25435e-06 2.2484e-06 -2.47193e-07
4.71374e-09 4.56448e-08 5.50009e-08
2.73559e-09 1.39942e-08 8.96485e-10
-3.71897e-09 5.07788e-09 -1.05296e-08
2.68555e-07 4.17221e-07 -3.31532e-07
1.04936e-06 1.61474e-06 -2.07202e-07
4.18615e-07 5.90819e-07 -4.3365e-07
2.49373e-10 2.98402e-08 2.92756e-08
-1.00343e-08 1.13975e-08 1.09323e-08
-2.75834e-09 1.17242e-08 2.01669e-09
1.80993e-08 1.61404e-08 3.85408e-08
2.44904e-08 5.71349e-09 3.86865e-08
1.24826e-08 3.13562e-09 2.31632e-08
1.47551e-08 1.88532e-08 3.71092e-08
3.57673e-08 3.21993e-08 7.84625e-08
2.3341e-07 3.16555e-07 -1.12415e-07
3.71821e-08 2.74721e-08 7.32556e-08
2.17156e-07 4.50745e-06 -3.84553e-07
2.16519e-06 2.89109e-06 -2.90826e-07
1.96115e-06 3.40069e-06 -5.58282e-07
-2.4351e-08 1.72543e-07 1.58748e-07
-6.2673e-08 2.5483e-07 2.27095e-07
5.66801e-06 3.81062e-06 2.32548e-06
7.65071e-06 2.94941e-06 5.15209e-07
4.07824e-07 3.60425e-07 -5.13018e-07
1.39384e-06 6.37633e-07 -3.88388e-07
3.71777e-05 2.42871e-05 2.34038e-05
2.61205e-06 9.76565e-07 -4.24984e-08
2.34641e-06 -2.93713e-07 -2.89047e-07
3.68618e-05 2.64229e-05 2.77601e-05
-9.73594e-07 3.81783e-07 -1.43804e-07
-1.03549e-06 3.90812e-07 -1.47831e-07
2.9857e-09 1.22874e-08 3.3838e-08
-1.22297e-09 1.71632e-08 3.70214e-08
1.05678e-06 5.72694e-07 9.34543e-08
1.02519e-06 7.42234e-07 -9.55263e-08
6.39677e-08 8.80644e-08 -2.16135e-08
5.71609e-05 3.08053e-05 -4.61582e-05
5.53936e-05 2.98264e-05 -4.94006e-05
3.73674e-08 9.08827e-08 1.57309e-08
4.47147e-08 -2.12582e-08 9.18037e-10
4.35062e-07 3.78119e-07 2.26268e-07
2.1453e-07 1.42016e-07 9.90344e-08
7.20446e-07 3.92308e-07 -3.01505e-07
8.67007e-07 4.13699e-07 -3.27631e-08
-6.457e-09 1.2385e-07 -1.1586e-08
1.33041e-07 1.71676e-07 -6.54098e-08
3.59331e-07 2.59822e-06 -9.03429e-07
1.34068e-06 9.58197e-07 7.22188e-08
7.20633e-09 -1.48233e-09 -1.24646e-08
-1.68143e-09 -3.22244e-10 9.98919e-09
3.06412e-05 9.37601e-06 1.10504e-05
3.20785e-05 1.02275e-05 1.29218e-05
-4.35626e-08 5.08245e-08 -1.04724e-07
-3.00005e-08 6.52924e-08 -1.2728e-07
2.63509e-06 1.28958e-05 2.98061e-06
1.27906e-07 1.60277e-07 -2.26158e-07
1.24262e-07 1.87172e-07 -2.44976e-07
3.52656e-08 1.39021e-07 1.58753e-07
8.00292e-08 2.25679e-07 2.52657e-07
2.7879e-06 8.27535e-07 -5.09411e-07
4.29313e-08 7.32186e-06 1.1834e-06
-2.40733e-06 3.65916e-06 5.87525e-07
6.75221e-07 1.26132e-08 -3.13581e-07
2.14645e-07 5.4327e-07 3.3101e-07
2.77816e-07 8.67477e-07 5.06759e-07
-6.26987e-08 8.32124e-08 -1.3539e-07
-6.16446e-08 5.96792e-08 -9.88877e-08
1.25961e-07 2.45663e-07 -1.76923e-07
2.55326e-08 1.55711e-07 -1.05037e-07
-4.93841e-05 2.09607e-05 -2.80654e-05
-4.50008e-05 2.23801e-05 -2.77119e-05
2.82499e-06 1.27766e-06 1.51019e-07
2.4334e-06 1.48639e-06 -7.01358e-08
-4.91857e-07 1.75549e-07 -6.36906e-08
-1.43072e-06 3.25618e-08 4.49159e-07
-6.19817e-07 3.64635e-07 -3.76739e-08
9.38089e-07 1.07622e-06 6.78846e-08
1.99429e-07 2.76212e-07 1.57192e-08
4.60934e-05 5.05442e-05 7.4187e-05
-6.14345e-06 2.91477e-06 1.54169e-06
4.72662e-05 5.02315e-05 7.98917e-05
-2.47126e-09 8.56146e-09 -1.00032e-08
-1.58681e-09 6.77199e-09 -7.52422e-09
3.38667e-05 6.6699e-05 0.000136969
3.52282e-05 6.62489e-05 0.000125528
-5.58482e-10 -2.51143e-10 1.08318e-09
-1.08145e-09 9.69212e-10 2.50455e-09
3.70283e-07 5.63288e-07 -5.06573e-08
2.94983e-07 6.281e-07 -1.36131e-07
4.06887e-05 3.32803e-05 -3.85365e-05
3.67154e-05 3.52006e-05 -4.50012e-05
2.12766e-07 8.26465e-08 -1.11887e-07
-3.92936e-09 -1.47015e-09 6.7538e-09
2.4863e-07 1.99144e-07 -2.0288e-07
7.47005e-09 1.34562e-07 -1.08297e-07
2.3065e-07 3.81446e-08 -8.5254e-08
-2.09043e-09 1.34383e-07 3.42032e-08
6.04561e-07 3.21908e-07 1.20413e-07
6.44721e-07 3.47553e-07 4.6051e-08
8.91978e-08 1.35726e-07 1.25483e-07
9.23339e-08 6.26185e-09 -5.71098e-08
1.54812e-06 3.97406e-06 -3.68788e-07
4.35882e-05 6.60582e-06 7.19481e-09
-4.65329e-08 2.64639e-07 7.1699e-08
-7.95231e-08 3.67425e-07 9.78226e-08
3.69706e-05 6.33363e-06 -1.081e-05
4.0009e-05 7.13669e-06 -1.15606e-05
5.04699e-08 9.7614e-08 -2.9716e-08
7.08027e-08 1.9763e-07 -4.04094e-08
-6.50335e-05 2.82619e-05 4.80175e-05
-5.36034e-05 3.10137e-05 4.8404e-05
0.000374023 3.09571e-05 9.67645e-05
0.000284053 4.77055e-05 0.000153898
-5.42604e-05 2.13596e-05 3.17648e-05
3.13534e-07 2.36878e-07 6.85323e-09
9.39611e-07 5.1085e-07 -1.58914e-07
1.10022e-07 1.87412e-07 -5.44156e-08
8.42211e-07 6.50228e-07 1.57203e-07
7.0203e-08 2.10878e-07 -6.42699e-08
8.31463e-08 1.77665e-07 1.77398e-09
4.26378e-07 -2.02613e-07 4.21091e-07
4.45158e-07 3.20399e-07 -2.74068e-07
4.09792e-07 4.08852e-07 -3.44829e-07
7.46853e-05 2.88991e-05 5.00057e-05
7.80098e-05 2.8167e-05 5.18306e-05
7.20324e-07 -5.14103e-08 5.06455e-07
5.23422e-07 3.06652e-07 6.78068e-09
-8.05172e-08 3.81486e-08 3.32858e-09
-1.13731e-07 6.21329e-08 2.21475e-08
1.10248e-06 5.38855e-05 7.79781e-05
-1.14001e-05 5.02392e-05 6.81675e-05
7.18717e-07 4.21481e-07 2.65182e-07
8.82143e-07 3.51306e-07 2.77159e-07
1.74064e-07 1.56554e-07 7.9066e-08
2.90428e-07 3.70712e-07 1.58081e-07
1.03946e-07 1.01886e-07 -1.35507e-07
1.18463e-07 8.0322e-08 -1.16496e-07
1.83747e-09 1.05929e-08 1.10153e-09
1.43956e-09 1.03421e-08 1.51992e-09
8.96944e-08 6.60719e-08 -9.92107e-08
3.26441e-09 4.02277e-09 -1.07406e-08
-1.45403e-09 6.33636e-09 -7.31713e-09
4.31441e-05 1.68913e-05 -1.64867e-05
8.38109e-07 6.84353e-07 2.91524e-07
8.80515e-07 6.42069e-07 1.27092e-07
3.6032e-05 1.13643e-05 -1.09783e-05
4.05399e-05 1.64875e-05 -1.84466e-05
4.10837e-09 1.48763e-08 -3.17929e-08
1.32156e-10 8.13394e-09 -1.63951e-08
6.1452e-08 2.57281e-07 1.94127e-07
1.89265e-07 2.39345e-07 1.98085e-07
1.57794e-06 1.17568e-06 9.5015e-07
1.95274e-06 1.08857e-06 7.09055e-07
2.23318e-09 7.52411e-09 6.00016e-09
8.90021e-10 8.03968e-09 7.15657e-09
3.44879e-07 2.42039e-07 -5.35177e-08
8.25647e-10 3.38416e-09 5.75522e-09
-2.79007e-08 1.9684e-08 -1.0766e-08
-2.12213e-08 9.97856e-09 3.18901e-08
3.29013e-07 2.50142e-07 1.40415e-09
4.27371e-07 3.31175e-07 1.58111e-08
1.09412e-08 -8.84485e-10 2.58864e-08
-3.23012e-09 1.19325e-08 3.91635e-08
8.47472e-10 -4.6177e-09 -1.55822e-08
-2.2605e-06 2.77476e-07 6.21214e-07
5.17e-08 -1.87532e-08 -3.3879e-09
-2.33097e-06 3.55152e-07 3.06393e-07
7.89729e-07 1.52036e-06 2.7016e-07
6.91442e-07 9.86328e-07 1.75201e-07
1.05254e-07 3.1605e-07 1.63051e-07
1.72986e-06 5.57355e-07 -2.77425e-07
4.4621e-07 2.04772e-07 1.3378e-07
4.58153e-07 2.87491e-07 1.32497e-07
1.4357e-07 3.41687e-07 1.55997e-07
-3.46681e-08 1.67923e-07 1.60894e-07
-1.55396e-08 1.77448e-07 1.55976e-07
4.18895e-08 1.22664e-08 -4.87681e-08
7.03799e-08 6.69949e-08 -5.38313e-08
2.32295e-07 1.2875e-07 -1.32474e-07
1.73082e-06 1.03979e-05 1.76769e-06
6.06946e-09 9.33752e-09 3.4221e-08
1.30205e-09 8.24408e-09 2.38218e-08
1.15592e-06 7.86466e-07 -1.87432e-07
7.74268e-07 1.20642e-06 1.41144e-08
1.98682e-06 1.30068e-06 -7.21341e-07
1.34405e-06 9.94879e-07 -5.67653e-07
1.14849e-06 1.1325e-06 4.30358e-07
3.76187e-07 3.16367e-07 -8.44383e-09
3.47212e-07 2.81116e-07 7.51104e-08
2.96878e-07 2.33514e-07 -2.2387e-07
-1.18902e-08 2.0511e-08 8.23523e-09
-7.95381e-09 2.56575e-08 -1.84474e-09
-8.45347e-09 2.51847e-08 -4.05494e-09
7.34876e-08 3.01132e-08 -7.87852e-08
1.39308e-08 5.68299e-08 -8.64124e-08
7.51117e-08 1.15345e-07 -1.84017e-07
-1.13403e-08 6.73643e-08 -7.40521e-08
1.38316e-07 2.15304e-07 1.62783e-08
2.62803e-06 6.00232e-06 -4.32155e-07
2.25749e-08 1.76776e-08 5.77412e-08
1.63175e-08 1.71319e-08 5.88026e-08
7.71792e-07 8.89497e-08 2.26102e-07
3.88878e-06 1.31935e-06 -9.15222e-08
1.47314e-07 2.61103e-07 -1.05212e-07
1.98325e-07 1.53215e-07 -1.00426e-07
2.28564e-07 4.81574e-07 2.81405e-08
4.99877e-08 9.0206e-07 7.07523e-08
1.89161e-08 7.09276e-08 7.7028e-08
1.38513e-08 7.24666e-08 7.05703e-08
2.09096e-08 2.52296e-08 -4.4573e-08
1.82538e-08 5.5298e-09 -1.87983e-08
1.41895e-08 3.91462e-09 2.20178e-08
1.62188e-08 1.26588e-08 3.76723e-08
1.44905e-08 1.92688e-08 -3.66599e-08
9.74093e-06 4.63893e-06 1.27871e-06
2.5815e-05 2.30122e-05 -1.90493e-05
-4.51883e-09 1.9486e-07 2.43659e-07
-1.03769e-07 1.57721e-07 1.90208e-07
8.79906e-07 1.69133e-06 -2.91745e-07
8.06318e-07 1.96484e-06 -2.50009e-07
0.000247301 2.61778e-05 7.51864e-05
0.000222993 3.08915e-05 9.01099e-05
2.41281e-05 2.15228e-05 -1.81534e-05
9.47313e-06 7.52276e-06 3.82783e-06
-8.84655e-07 7.46919e-07 -1.83883e-07
-9.05514e-07 5.83392e-07 -1.63303e-07
6.09528e-06 4.59721e-06 1.82467e-06
3.04041e-05 2.47678e-05 2.39315e-05
2.68959e-05 1.89865e-05 1.78838e-05
7.57444e-10 -5.1065e-09 1.8395e-08
-2.0568e-08 1.57251e-08 -1.49378e-08
-1.29727e-07 5.89905e-08 5.484e-08
2.73345e-05 1.82258e-05 1.51884e-05
-2.14518e-07 6.2917e-08 -5.53392e-08
-1.69382e-07 8.03072e-08 2.42054e-08
-4.6243e-07 2.83001e-07 -2.06733e-07
-2.84511e-07 1.59501e-07 -1.22609e-07
-2.11004e-07 8.05879e-08 -1.19423e-08
7.50978e-07 5.52901e-06 -2.58033e-07
9.59875e-09 5.69747e-09 -6.84051e-09
9.91793e-09 7.43672e-09 -1.12924e-08
-1.4991e-08 3.47757e-08 -2.58459e-09
6.30491e-09 2.53412e-08 1.63104e-08
-5.82385e-09 1.49305e-08 9.81378e-09
-1.6393e-08 3.01967e-08 1.16001e-08
-2.01493e-08 2.6245e-08 6.28315e-09
-3.22043e-08 5.79093e-08 -6.94888e-09
4.48539e-08 5.10589e-09 -5.14056e-08
2.88619e-07 3.3784e-07 4.33856e-08
2.92768e-07 1.64124e-07 -1.14006e-07
2.13022e-07 2.02373e-07 2.10204e-08
-2.33129e-08 9.84333e-08 -1.41853e-08
9.83862e-07 5.21682e-07 -5.57201e-08
-3.87348e-06 3.34951e-06 2.09773e-06
-2.41505e-06 3.47883e-06 2.13926e-06
-1.07372e-06 8.47303e-08 3.39554e-07
-9.15305e-07 -4.90433e-08 5.84775e-07
1.62044e-06 8.24326e-07 -1.02104e-07
1.47161e-06 2.6738e-07 5.11824e-07
-1.34517e-08 8.49635e-09 5.0112e-08
-5.42613e-07 -3.08652e-08 -5.38299e-07
-9.69383e-07 6.58297e-08 -4.88439e-07
-4.04423e-09 2.7217e-10 2.19978e-09
-1.00607e-08 6.50366e-09 1.20384e-08
-1.01907e-08 -9.78426e-10 -4.26906e-09
1.90246e-07 5.44527e-07 1.37022e-07
1.36233e-07 5.30373e-07 1.15005e-07
-2.64153e-08 2.14336e-08 1.97518e-08
3.54881e-07 2.50437e-07 -2.78116e-07
-7.51782e-08 2.30565e-07 1.05609e-07
-1.69714e-06 2.24444e-06 3.6503e-07
-1.61522e-06 2.16917e-06 2.99984e-07
-1.5435e-07 2.0864e-07 1.04823e-07
-1.24919e-07 1.13103e-06 -7.22686e-08
-6.48057e-08 1.1817e-06 -1.0617e-07
3.16886e-07 6.15987e-07 -4.69704e-08
-2.55187e-08 2.59622e-08 3.14947e-08
1.58737e-06 3.02383e-06 -1.14015e-06
1.93688e-06 1.98294e-06 -4.07514e-07
-2.92443e-07 2.19699e-06 -1.08151e-06
-3.06635e-08 3.50938e-09 -1.23377e-08
4.28998e-05 3.43096e-05 4.8588e-05
3.10713e-05 3.2884e-05 4.36473e-05
6.22821e-09 -9.24086e-12 -1.49353e-08
1.65555e-09 7.91792e-08 3.39053e-08
5.18241e-05 3.14257e-05 -3.93544e-05
1.3589e-08 1.32229e-07 6.30768e-08
2.26166e-08 2.70821e-08 5.35462e-08
3.82275e-08 2.31613e-08 5.37729e-08
3.71209e-07 3.99507e-07 -3.45713e-07
2.46544e-08 2.35732e-08 4.23304e-08
2.39255e-06 7.16617e-06 -1.43614e-06
4.10835e-06 2.79276e-06 -1.42216e-07
1.16567e-08 6.4869e-08 8.3254e-08
-1.35046e-08 7.43338e-08 1.96507e-08
-2.36276e-08 1.32577e-08 2.71239e-08
-1.1984e-08 5.51555e-10 7.39939e-09
7.98308e-06 1.73223e-06 -8.09181e-07
1.0167e-05 2.56605e-06 -4.24346e-06
-2.36706e-06 1.78086e-06 1.29572e-07
-1.63577e-07 4.12445e-07 5.18635e-08
2.78806e-06 1.09517e-06 -2.58154e-07
-5.6552e-08 7.99479e-08 6.13715e-09
-2.28637e-08 9.30319e-08 -6.05062e-09
-1.73703e-06 1.01832e-07 6.9582e-07
-2.0597e-06 6.11977e-07 -7.56468e-07
-1.03212e-06 2.53251e-07 -8.98418e-08
-1.21215e-06 1.49379e-07 -4.01743e-07
-7.46938e-08 1.02181e-07 -6.62273e-08
-4.44423e-07 4.00333e-07 9.37327e-09
5.24212e-07 1.73546e-07 -2.78912e-07
5.23774e-07 1.93384e-07 -2.25306e-07
-4.66225e-07 4.11454e-07 1.49275e-08
6.54651e-07 4.99649e-06 7.96439e-08
1.8707e-06 4.14624e-06 3.4291e-08
1.24295e-06 3.42358e-06 1.75621e-07
1.2308e-08 1.50998e-08 5.3059e-08
8.87452e-06 1.90443e-06 4.69342e-07
1.00328e-05 2.17254e-06 -1.81137e-06
-1.48375e-06 6.20472e-06 -1.07577e-06
1.17124e-08 -1.70637e-09 1.44215e-08
2.00859e-06 3.92414e-06 7.8085e-08
2.34384e-06 1.09511e-05 6.17065e-06
5.28578e-06 5.93817e-06 2.4948e-06
1.21557e-05 1.06941e-05 5.027e-06
9.51091e-08 4.04433e-07 6.4561e-08
5.53783e-08 5.39319e-07 4.41155e-08
-2.6195e-07 1.38756e-06 1.56377e-07
-2.383e-08 7.35085e-07 8.39371e-08
7.16271e-07 3.11436e-07 1.62478e-07
3.25207e-07 5.31434e-07 9.73849e-08
2.01332e-06 6.8481e-07 -2.25352e-08
2.84235e-06 1.24501e-06 5.46815e-07
-3.38326e-08 6.44462e-10 2.55451e-08
-2.87175e-08 -2.57856e-09 1.23385e-08
7.3807e-08 2.00991e-08 -8.40079e-08
5.75507e-08 9.75788e-09 -5.13885e-08
-2.01504e-08 6.58312e-08 9.90914e-08
1.28461e-08 5.40915e-08 1.05672e-07
-1.54254e-08 5.5865e-08 9.27035e-08
2.71762e-07 1.03615e-07 2.07815e-07
4.14016e-07 2.56891e-07 -8.11131e-08
5.94044e-07 2.80569e-07 1.46192e-07
2.35431e-08 7.77792e-08 -8.44848e-08
1.27457e-08 7.91067e-08 -8.05043e-08
-5.66428e-08 5.98143e-07 -3.44046e-07
2.22054e-08 3.41126e-07 -2.00894e-07
-1.92804e-07 2.78187e-06 -5.12157e-07
-7.95191e-07 1.88787e-06 -3.48717e-07
-1.49228e-08 6.53118e-08 -5.78446e-08
2.11581e-07 -1.37431e-08 -3.93957e-08
-1.9169e-08 5.64466e-09 1.13818e-08
1.30242e-08 3.49337e-08 -5.31519e-08
-1.7513e-06 3.70942e-06 -1.6145e-07
-7.98161e-08 3.74084e-07 -2.77846e-07
-1.4322e-07 3.23534e-07 -2.28155e-07
2.53589e-05 3.69851e-05 3.56665e-05
1.79512e-06 9.48213e-07 1.43978e-06
0.000110226 9.87673e-06 2.99791e-07
0.000127282 1.08934e-05 -1.89685e-05
9.27761e-05 1.13667e-05 -3.317e-05
0.000118085 1.08105e-05 -1.32519e-05
1.89019e-06 9.15051e-07 1.52183e-06
2.43373e-05 2.82986e-05 2.63014e-05
2.3261e-05 2.80706e-05 2.39657e-05
4.49389e-08 3.06075e-08 -8.28312e-08
-2.48238e-08 5.82857e-09 -3.09813e-08
-1.28506e-08 4.78548e-09 -5.2012e-08
5.0682e-08 1.99154e-08 -6.92556e-08
2.27443e-08 9.90337e-09 -3.50225e-08
1.45905e-07 2.58277e-07 9.21507e-08
1.03083e-07 3.91926e-07 2.39562e-07
-6.60944e-07 9.44294e-08 2.26331e-07
-2.41828e-05 9.14196e-06 -8.62485e-06
-2.2816e-05 1.20722e-05 -1.31636e-05
-9.14158e-07 7.78742e-07 -2.16437e-07
2.1848e-07 2.10511e-07 -1.70699e-07
3.53103e-07 3.96097e-07 1.03917e-07
1.9083e-07 5.40671e-07 -2.84749e-07
1.79542e-07 2.23165e-07 -1.48986e-07
1.16563e-07 4.72081e-09 7.01904e-08
9.53803e-08 5.16072e-08 1.2354e-07
5.94114e-08 3.0972e-08 7.93958e-08
1.28105e-06 1.68309e-06 -1.18503e-07
1.41079e-06 1.91589e-06 -1.20848e-07
-4.99081e-05 2.09774e-05 -3.09778e-05
-1.03257e-07 2.2669e-07 6.05559e-09
3.02086e-08 5.7935e-09 1.96561e-08
-2.83377e-08 6.3036e-08 1.13965e-07
6.80615e-07 2.04455e-06 -2.18964e-07
7.00093e-07 1.36641e-06 -1.73434e-07
-5.84722e-08 1.02484e-07 -1.16991e-09
1.23406e-07 1.94713e-07 2.54263e-09
-1.16777e-07 1.80769e-07 -1.23623e-08
-1.93819e-05 1.14788e-06 -1.08597e-06
5.27564e-09 1.14466e-07 -5.47523e-08
-1.30552e-09 9.72538e-08 -4.77435e-08
-8.23753e-06 -8.32403e-07 -2.70049e-06
8.22796e-07 7.87383e-07 -2.91524e-07
-1.46192e-05 4.09374e-06 3.91441e-06
-1.14753e-08 1.04597e-07 -2.23684e-10
1.80871e-06 6.48287e-07 1.79399e-07
1.97143e-06 5.25308e-07 5.02408e-07
2.64464e-09 6.9923e-08 -3.71551e-08
-1.01168e-08 8.07643e-08 2.30168e-08
1.16818e-07 2.11059e-07 -1.28561e-07
1.69428e-08 -9.11497e-09 -1.87859e-08
1.68198e-08 1.6345e-09 -3.76862e-08
4.54985e-07 4.88023e-07 -1.40598e-07
5.71641e-07 4.0962e-07 6.36732e-08
2.89845e-06 2.37366e-06 9.85698e-07
3.63054e-05 3.73624e-05 4.79154e-05
2.94449e-05 3.72528e-05 4.42885e-05
1.66451e-08 8.37735e-10 -1.12207e-09
-1.3959e-08 4.59719e-10 -1.82233e-08
2.40406e-05 3.27739e-05 3.67912e-05
3.62778e-07 1.00743e-07 1.54103e-07
1.78818e-07 1.49819e-07 8.38191e-09
-2.27531e-08 5.67162e-08 -2.64565e-09
-9.5887e-08 1.77959e-07 1.59995e-07
-8.87793e-08 1.94968e-07 1.60365e-07
-5.96606e-07 3.25621e-06 2.67035e-07
-8.64148e-08 3.88723e-08 3.52755e-08
-2.65368e-08 1.17218e-07 9.12215e-08
-6.04729e-05 3.55338e-05 -5.56212e-05
-4.71809e-05 2.98794e-05 -4.31967e-05
-7.45061e-07 3.28142e-06 2.81626e-07
1.04299e-06 1.26141e-06 -2.67316e-07
-2.84539e-07 2.74148e-06 3.58145e-07
-2.49401e-09 -1.32701e-09 -2.53681e-08
6.21202e-08 7.29883e-07 -2.48103e-07
-2.79991e-06 3.65512e-05 -3.54375e-05
2.59883e-07 3.66392e-07 -4.98284e-08
9.79915e-07 6.73624e-07 7.07396e-07
6.24907e-08 1.0958e-07 -5.5951e-08
-3.33856e-08 4.77964e-08 2.83314e-08
9.03052e-09 2.42507e-09 -5.04713e-09
-3.7521e-09 3.53495e-09 -2.19821e-08
-1.43642e-05 2.12597e-05 -2.08203e-05
-3.09782e-08 6.31609e-08 9.55698e-08
1.40103e-06 5.20062e-07 -2.1676e-07
-5.2056e-09 -2.58957e-09 1.57545e-09
6.19096e-08 1.26409e-07 1.37057e-07
2.00852e-08 1.85129e-09 2.19598e-08
1.92543e-05 2.62958e-05 -1.87662e-05
2.7091e-07 8.53401e-08 -1.04928e-07
1.21181e-05 2.80166e-05 -2.29714e-05
0.000511936 1.53584e-05 -0.000121385
0.000517166 1.99201e-05 -0.000114178
1.35511e-08 9.63925e-08 9.1375e-08
2.51963e-05 7.06713e-05 -0.000183646
1.11257e-08 1.0884e-07 8.77e-08
-5.60086e-08 7.31343e-08 1.40158e-08
-6.54538e-08 5.3194e-08 -6.25456e-09
4.02984e-08 1.50352e-07 1.25783e-07
1.1144e-06 1.15161e-06 -3.65795e-07
1.4002e-08 1.84486e-09 -1.16063e-08
3.54207e-07 2.82818e-07 -1.06652e-07
3.31773e-05 4.13009e-05 -4.46528e-05
3.57479e-07 1.97878e-07 7.13888e-08
3.6161e-07 1.58399e-07 1.38459e-07
3.70945e-07 1.89715e-07 1.16498e-07
3.19221e-05 4.11639e-05 5.87119e-05
-9.65069e-08 5.16438e-08 -2.03451e-08
-8.47837e-08 4.442e-08 -5.06441e-08
-1.63042e-07 1.0708e-07 -1.67335e-08
-2.93883e-07 2.60611e-07 -7.42145e-08
3.7189e-05 4.54358e-05 6.29695e-05
7.75238e-06 2.62025e-06 -2.35896e-07
1.84176e-06 5.6094e-06 -3.05376e-06
1.79856e-06 4.88189e-06 -2.49321e-06
0.000324526 1.95072e-05 -7.71882e-05
0.000309818 2.12081e-05 -7.35053e-05