# vtk DataFile Version 2.0
S, Created by Mohamad Ibrahim Cheikh
ASCII
DATASET UNSTRUCTURED_GRID
POINTS 10490 double
-223.577 20.3387 -34.7914
-223.731 23.2842 -32.7646
-130.493 -29.3155 69.2807
-194.384 -37.8826 -41.0225
-207.475 29.5047 40.0419
-235.879 27.396 13.4742
-191.275 -39.7121 -41.0814
14.4249 -3.15533 87.7985
-191.08 39.214 -41.6671
-193.421 36.9257 -42.4284
-251.147 3.21165 -3.3804
-251.007 5.46186 -0.714708
-204.327 29.2956 -42.1228
18.6277 -1.55425 87.7445
-201.231 30.3625 -43.1793
-151.362 68.7341 -14.6514
-148.58 69.9429 -12.2148
241.381 21.7603 -11.7087
240.378 24.3444 -8.78239
39.8626 72.8583 -47.3405
43.6891 72.1584 -47.9946
45.4622 -3.22032 -86.4904
49.3202 -1.52603 -86.2778
-145.563 -45.4968 -55.4969
-142.059 -46.9216 -55.4222
-191.797 -27.366 49.9135
-189.472 -30.044 49.4586
-64.3393 -67.8376 51.3347
-66.479 -66.0174 53.335
-121.231 -41.6816 -64.8637
-205.497 44.6043 24.1728
-208.437 41.8682 25.9223
-64.8768 -22.6203 81.9574
-61.239 -23.9445 81.9239
44.3333 4.15531 86.5223
-201.399 -44.9178 27.5762
-53.2814 82.3874 -24.6728
-50.254 82.0102 -26.6295
-109.541 -78.4117 -11.2481
-105.515 -79.2424 -10.0781
-195.503 42.6362 35.3085
-200.947 -43.0033 30.8384
-54.4309 -15.3526 84.5315
3.53194 8.2408 87.6046
226.254 36.0724 -13.2453
223.494 37.2786 -15.4583
-147.009 22.4136 -67.7917
-143.845 23.6661 -68.1958
-167.021 -43.0245 -49.7752
-163.503 -43.4795 -50.7994
-215.267 -7.15964 -44.937
-215.167 -3.16387 -45.4515
-105.643 -17.6404 77.8873
-104.107 -21.176 77.257
-247.959 -12.5237 7.72451
-247.222 -12.2251 10.5722
-226.224 -18.8472 33.5127
-129.026 -40.8341 -63.5483
238.447 4.07547 -27.6833
236.191 2.11799 -30.1592
30.706 -3.76118 -87.2606
26.7318 -2.03638 -87.4778
-224.961 -22.5407 32.2497
-47.6603 -75.8723 41.3435
-235.553 -26.7707 15.3058
-110.372 51.1431 -60.3069
-237.919 -25.2894 13.1987
-16.8369 -1.51533 -87.7895
-20.0211 -4.04718 -87.6273
25.3104 7.4637 -87.2345
27.3992 3.66118 -87.3996
25.4721 1.67811 -87.5314
45.9826 -6.3431 -86.2838
-242.159 -16.9752 16.6255
249.587 -5.3691 -9.40943
249.111 -2.30255 -11.8807
-169.143 48.1633 43.8363
30.4487 -13.4953 -86.3039
-165.519 47.9326 45.7417
-244.371 -14.4433 14.9727
243.986 6.9279 20.1942
244.544 3.56431 20.2422
-218.53 -34.2529 26.9078
-142.146 -69.411 21.2688
-139.63 -70.7398 18.7862
-221.096 -32.0565 27.0477
-157.971 -59.8002 33.3574
-205.04 32.4602 39.2835
-154.319 -61.3639 32.6015
21.3254 7.33324 87.3759
-119.087 18.494 75.2708
-116.416 20.5754 75.2421
25.5782 -59.0338 64.6445
29.1132 -57.6634 65.6899
-134.587 55.022 -49.9892
-136.889 52.5382 -51.8611
-177.095 57.9157 23.4523
-176.706 59.3872 19.8564
-70.1512 65.1115 -53.8701
-62.7718 16.9232 -83.5176
-66.386 16.9209 -83.1752
-66.6105 66.6367 -52.5388
124.469 57.7436 50.1291
121.036 58.3497 50.4553
-132.441 -69.8472 26.7932
-132.815 -68.0012 30.987
-188.872 35.1155 46.2976
-185.125 37.2848 46.4541
-232.727 13.1734 -30.6499
-60.1823 75.0316 40.8756
-61.4978 76.5484 37.7002
-231.927 16.7976 -29.6018
-175.271 -46.9571 -42.1659
-178.793 -11.2331 60.8613
-181.8 -8.37673 60.2275
-195.826 53.7502 12.6487
-198.38 52.0633 14.6696
-195.137 -6.40483 -55.1456
-196.111 -2.36548 -55.0434
-155.759 25.0322 64.3983
-159.473 22.4782 64.2271
-196.21 -54.5515 -7.39853
-193.182 -56.048 -5.79664
-91.349 75.1699 -32.739
-87.376 75.5433 -33.204
-39.2311 -78.9679 -36.3269
-42.7322 -77.655 -38.6023
-35.7228 20.4763 -84.6669
-119.251 -59.0789 -50.1262
-116.056 -58.3915 -51.8211
-103.566 -58.9127 54.4071
-107.461 -57.222 55.2796
-176.098 46.9014 -41.8048
26.905 13.9487 -86.376
23.8069 15.7583 -86.1759
-175.609 44.5874 -44.5017
-89.4467 -39.5953 72.088
-93.3167 -38.4602 72.1019
-1.70666 -75.0132 -46.0072
2.63236 -75.2493 -45.6147
-158.023 -33.1985 -59.8717
-154.736 -36.6334 -58.9117
26.0693 72.7506 48.6636
28.5071 70.7294 51.3989
-166.603 38.8023 53.2931
-169.011 36.427 54.0361
126.648 60.2626 46.3536
125.009 62.2377 44.2405
55.9257 20.2532 83.372
-158.157 12.6375 67.2447
-155.547 9.85469 68.4448
-44.2954 73.1686 -46.3695
70.988 53.0563 -65.6664
-41.6305 74.8465 -43.9297
222.064 -27.8283 -30.5324
225.276 -26.0124 -29.2251
-17.8101 79.1956 -37.8579
-20.5349 77.9208 -40.2581
247.477 -7.06406 13.9944
245.671 -9.0724 16.5072
-182.895 19.8506 57.0489
-181.353 22.6931 56.5898
-55.853 68.4114 51.7876
-53.5833 70.2728 49.54
-221.675 26.3865 -32.1181
245.289 -12.7014 14.7128
-123.338 -44.6615 -62.345
-128.466 -46.9015 -59.3609
-126.784 -44.2471 -61.7917
-219.064 -11.0544 41.7912
-206.373 49.8766 -6.48216
-208.058 48.514 -9.51802
-173.563 -35.1402 53.1136
-196.134 -34.8662 -42.6454
-56.8511 10.6093 85.0632
-99.7665 80.6338 4.85824
-149.824 -21.4701 67.3409
-153.215 -21.7167 66.3202
-105.863 79.7885 2.39166
-103.53 80.0098 5.49293
-208.26 -1.82611 -49.301
-211.702 -0.427911 -47.5051
7.24517 76.3596 -43.6666
8.93024 74.6271 -46.53
-19.4727 85.8738 -17.9794
-22.6965 85.0829 -21.0196
12.6969 74.1648 -47.1577
-209.321 34.906 -34.0774
-209.435 37.4782 -31.1321
-243.67 12.289 -17.9906
-206.002 40.0865 -30.6843
-237.952 16.7279 23.0654
-240.125 13.5341 22.3944
-198.674 34.6963 41.3241
-44.0943 -51.8626 -69.3991
-47.9392 -52.1815 -68.8457
-65.1173 78.2357 -33.2271
-62.032 79.2318 -31.5471
-198.91 37.6913 38.4628
-195.384 39.9823 38.3623
193.194 51.8476 -22.051
191.209 51.6119 -24.5777
-17.4606 72.2888 -49.8097
-16.0146 70.589 -52.2474
-160.72 -8.6806 67.1279
-158.267 -5.14693 68.1968
-159.181 -12.186 67.032
-155.589 -13.9524 67.7167
-181.218 -39.369 -46.6205
-187.069 -34.8949 -47.3489
234.201 -8.19822 31.0077
231.367 -8.8397 33.3482
-185.725 -37.8059 -45.7345
-220.423 -36.3319 -21.8073
-223.2 -33.1948 -23.2994
-74.5445 69.4939 47.268
-199.256 43.3651 -31.6638
-202.421 40.5108 -32.9604
-79.2405 71.8795 42.5275
-75.4317 71.6678 43.7162
-199.863 -47.1006 -25.2
-196.405 -49.1628 -24.5819
-156.238 -38.5656 57.1674
-155.217 -34.607 59.9727
-162.923 56.2495 -36.4719
-159.779 58.0789 -35.2885
245.94 -16.0778 8.95229
246.756 -13.0534 10.9095
-202.194 25.1217 -45.9092
246.469 -16.6406 5.45929
-222.674 -40.7297 -3.81015
-219.563 -42.6766 -4.53646
-225.915 36.4519 -12.9115
-224.09 36.2103 -16.8757
-228.9 -34.8682 10.6497
-231.376 -33.5774 7.89107
-225.472 -37.7616 9.69483
119.592 74.8237 19.8594
-172.164 -51.1021 -38.7774
115.397 75.6381 19.812
47.9073 12.1533 -85.5296
51.4954 10.7618 -85.4607
-180.222 -22.1782 57.2328
-179.961 52.317 -32.2787
-165.456 0.84579 66.2697
-168.579 2.82249 65.2433
-181.021 -17.4206 58.5546
36.4526 -59.7562 63.3286
37.7867 -57.2095 65.5459
-159.985 -59.9395 -31.9003
-182.768 -21.7986 -56.3839
-184.314 -18.0316 -57.0937
-11.9494 14.9791 -86.6149
-188.59 -54.9979 19.1012
-192.466 -53.1212 19.6699
-145.948 9.32893 -71.0571
-143.744 12.1287 -71.1842
-174.384 52.4101 35.6943
-173.441 50.7099 38.5948
-187.189 39.7077 -43.3288
-231.501 33.4935 -7.7979
-229.095 35.968 -4.96011
-234.906 30.8694 -5.93913
241.404 7.72074 23.4444
239.892 10.8366 24.102
240.609 13.4017 21.8298
-138.879 -61.8304 -39.4921
-138.123 -60.1631 -42.2927
-141.496 -58.2514 -43.5842
-200.351 -41.165 -33.6903
-218.717 20.1138 -38.506
-52.7061 8.99264 85.5747
-56.6799 -81.1832 27.5676
-60.1942 -81.4609 25.7782
-152.614 56.1692 41.6833
-153.414 58.045 38.6427
-189.414 -9.90016 -57.0391
-186.067 -8.88093 -58.536
64.9104 -8.71318 84.5709
67.8934 -7.08237 84.4363
-196.835 -37.2201 40.1897
-200.415 -34.6105 40.3555
-180.668 -48.2458 -37.6842
-174.532 -52.0917 -36.0702
-215.619 -38.5089 23.8559
-218.655 -36.415 23.7601
-178.254 -50.9819 -35.4213
-121.64 47.9042 -60.3132
-71.4995 59.4323 59.8825
26.8711 -68.3023 54.6845
24.8093 -66.5891 56.873
-87.2015 -8.6044 -82.0914
-84.0207 -6.30005 -82.7044
-33.66 85.7081 -16.106
-37.1653 85.1978 -17.7826
-75.291 59.9543 58.7831
-117.703 48.9189 -60.4548
67.0986 -10.9731 -84.0975
63.3495 -11.578 -84.3719
-122.374 44.6979 -62.5511
-76.3745 63.9376 -54.2387
-79.8708 64.1535 -53.3601
-210.937 -46.4386 -11.8321
-207.911 -47.2775 -14.716
-70.3826 -66.9059 51.586
-82.6184 61.6559 -55.7392
181.006 57.5723 -20.4503
187.794 54.7421 -20.727
-57.9832 -57.7709 -63.2052
-60.2463 -59.9505 -60.8733
185.031 56.5054 -18.9617
-52.2229 4.88484 85.9432
170.803 -60.94 -21.4145
166.657 -61.8364 -22.799
-242.16 -11.231 20.9366
-241.443 -7.71461 23.397
231.623 25.8609 -22.5154
229.371 25.1801 -25.8604
225.985 27.6874 -26.9258
-235.384 -18.9699 -24.5115
-234.85 -16.6287 -26.7375
-226.069 27.1605 -27.3719
-222.953 28.4604 -29.1245
-220.769 31.3748 -28.1509
-250.634 -7.29567 -0.178354
-176.055 45.303 43.5529
58.6972 51.2374 -68.534
59.7686 48.4079 -70.4508
128.116 68.3801 32.5368
131.607 68.3051 30.9495
-176.946 47.6093 40.547
-181.047 46.7524 39.3087
18.705 -86.418 15.2673
142.038 69.3645 -21.5073
141.103 68.3958 -25.0685
23.2385 -86.1703 15.8921
181.098 -44.0245 42.3149
25.6369 -86.6619 12.3797
-189.027 21.6396 -53.8621
-189.447 17.8936 -55.0432
-212.326 -45.0147 14.0792
-120.852 -47.0055 -61.2077
-24.32 -37.2751 79.26
52.3298 18.5181 -84.0584
55.843 16.7317 -84.1562
-25.2895 -41.124 77.295
-119.136 -6.54419 -77.2235
-115.757 -7.76054 -77.7383
-200.052 16.4682 50.7251
-215.148 -43.2645 14.3198
-153.442 33.02 61.4096
-156.869 31.3445 61.2272
-157.694 28.1931 62.487
-79.9673 -83.4309 0.603051
-63.4953 72.6719 -44.3756
-62.7112 70.634 -47.6797
-79.8046 -83.3553 -4.02094
-209.642 -18.6823 44.8798
-60.2915 71.2671 47.1164
-205.671 -19.6753 46.669
-191.283 -46.3887 33.3532
-190.154 -45.0079 35.9358
-195.135 47.3214 29.0317
-192.217 -42.6383 37.4501
-97.7057 19.7618 78.6429
-94.1256 20.972 78.8637
-195.846 -41.8729 35.9827
-247.679 -8.81266 12.4831
188.065 -42.0219 40.5954
184.93 -44.2656 39.9694
-127.236 75.494 7.91271
-123.621 76.0193 9.69787
48.886 1.678 86.3052
130.447 15.5902 -73.6044
-179.728 46.5157 -40.3177
198.596 13.1797 52.3604
200.49 9.43308 52.2854
113.362 74.8969 23.6875
109.623 75.3454 24.409
149.568 63.7415 -30.6948
145.74 65.3534 -29.5379
-166.874 -45.6707 -47.4222
129.847 19.354 -72.837
-209.807 43.7061 -21.0832
-206.947 46.1292 -19.3072
126.472 20.2062 -73.3309
-61.896 -0.361676 85.2926
-59.1948 2.56704 85.4892
-53.8549 -2.01099 85.9352
[...]
POINT_DATA 10490
VECTORS F double
1.3567e-08 3.2195e-08 8.14836e-09
1.34842e-07 9.5001e-08 -4.52143e-08
1.2749e-07 6.84906e-07 3.19211e-07
5.87029e-08 -6.34409e-09 -2.81963e-08
2.91634e-07 2.70505e-07 -1.43188e-08
1.88281e-07 2.02836e-07 -8.87725e-09
8.61194e-08 2.81335e-08 -7.62866e-08
-1.79833e-06 2.02058e-06 1.08789e-07
1.01689e-06 7.84379e-07 1.67268e-07
1.12637e-06 6.70041e-07 -4.55233e-08
1.28494e-08 7.68649e-08 -4.37978e-08
1.139e-08 6.11192e-08 -2.23647e-08
9.78276e-08 3.78991e-07 2.05484e-07
-2.23701e-06 3.56786e-06 1.21341e-07
1.43121e-07 1.12489e-07 -2.56013e-09
3.39602e-06 5.74419e-07 -1.60062e-06
4.44096e-06 7.1509e-07 -2.51905e-06
-1.20998e-08 2.27606e-08 1.17598e-08
-1.41327e-08 2.2039e-08 1.37276e-08
-3.09812e-05 5.41922e-06 5.14635e-06
-2.99706e-05 4.79868e-06 3.87444e-06
-3.40575e-06 1.91837e-06 -2.906e-07
-3.09773e-06 1.3805e-06 -2.4122e-07
3.1244e-08 2.2767e-07 -1.96679e-07
5.81579e-08 2.54285e-07 -2.33534e-07
1.28492e-08 1.66048e-07 9.70832e-08
-2.52601e-09 1.41654e-07 8.48633e-08
-4.28467e-08 1.7781e-07 2.28398e-07
-1.79859e-07 1.36446e-07 1.41444e-07
2.5802e-07 2.18632e-07 -1.99534e-07
5.96378e-07 2.7376e-07 1.15562e-07
3.89725e-07 3.01687e-07 -1.03606e-07
8.63711e-08 2.89264e-06 8.06742e-07
-3.60913e-07 1.42797e-06 3.84333e-07
-1.89479e-06 2.83347e-06 -1.72158e-08
1.29624e-08 2.85233e-08 5.80507e-08
0.000117881 2.66867e-05 5.79438e-05
0.000129653 3.13058e-05 6.64549e-05
3.90043e-08 8.29201e-10 -5.22813e-08
3.3364e-08 -2.41372e-09 -2.37833e-08
6.62193e-07 3.68938e-07 3.39316e-09
2.51319e-08 2.91888e-08 6.07521e-08
3.50745e-07 2.66919e-06 5.12428e-07
-1.41004e-06 3.33805e-06 -3.07044e-07
-2.38207e-08 1.40769e-08 -1.14816e-08
-4.03346e-08 3.63026e-08 1.61481e-08
1.34541e-06 9.1572e-07 -5.4439e-08
1.09628e-06 1.95738e-06 3.96166e-07
-5.42315e-08 1.07633e-07 -7.07558e-08
-4.72929e-08 1.21302e-07 -8.51864e-08
5.56649e-08 1.54549e-07 -5.72694e-08
7.39894e-08 1.6389e-07 -5.42908e-08
9.50995e-07 2.37235e-06 6.95225e-07
9.83068e-07 2.28436e-06 7.88328e-07
-4.14427e-08 1.00547e-07 1.29817e-10
-2.92592e-08 7.5878e-08 3.96048e-09
5.74365e-08 9.82445e-08 1.02719e-07
1.80566e-07 3.56115e-08 -6.77676e-08
-1.98676e-08 1.32423e-08 -1.90012e-08
-1.87882e-08 8.10681e-09 -1.74456e-08
-2.65006e-06 3.14268e-06 -2.49631e-07
-2.39959e-06 4.12504e-06 -1.85804e-07
1.13332e-08 8.79689e-08 7.11623e-08
-3.70699e-08 5.11456e-08 8.8628e-08
-1.1939e-08 1.29242e-08 1.04248e-10
1.64568e-05 6.63255e-06 1.93722e-06
-2.18067e-08 3.75048e-08 2.37278e-08
-5.95778e-07 5.18535e-06 -7.55175e-08
1.67227e-07 3.9087e-06 -1.85208e-07
-4.95284e-07 7.70194e-06 6.41373e-07
-3.72257e-06 5.7999e-06 1.0008e-07
-2.36572e-06 4.28609e-06 -2.11814e-09
-1.2486e-06 2.22279e-06 -2.44874e-07
4.81038e-09 4.59471e-08 5.54871e-08
2.70716e-09 1.37845e-08 9.21132e-10
-3.68772e-09 4.91975e-09 -1.04225e-08
2.70909e-07 4.15016e-07 -3.28002e-07
1.03794e-06 1.60124e-06 -2.05555e-07
4.2075e-07 5.88963e-07 -4.30769e-07
3.14055e-10 2.99342e-08 2.94985e-08
-9.94902e-09 1.12343e-08 1.08619e-08
-2.74126e-09 1.15652e-08 2.0167e-09
1.82888e-08 1.6214e-08 3.88245e-08
2.46693e-08 5.68504e-09 3.8737e-08
1.25436e-08 3.1015e-09 2.30898e-08
1.48966e-08 1.88731e-08 3.72746e-08
3.60555e-08 3.23975e-08 7.89838e-08
2.33614e-07 3.16363e-07 -1.12128e-07
3.74101e-08 2.7595e-08 7.36203e-08
1.89437e-07 4.49944e-06 -3.83289e-07
2.16107e-06 2.88043e-06 -2.89122e-07
1.95896e-06 3.38654e-06 -5.54988e-07
-2.46401e-08 1.7267e-07 1.58877e-07
-6.29811e-08 2.54976e-07 2.27238e-07
5.60841e-06 3.7483e-06 2.277e-06
7.53081e-06 2.91234e-06 5.16706e-07
4.0704e-07 3.58645e-07 -5.09359e-07
1.38637e-06 6.33846e-07 -3.85226e-07
3.61094e-05 2.39328e-05 2.31699e-05
2.57101e-06 1.02893e-06 -2.80911e-08
2.30742e-06 -2.50677e-07 -2.76474e-07
3.56193e-05 2.6224e-05 2.77317e-05
-9.83621e-07 3.81261e-07 -1.40163e-07
-1.04622e-06 3.94439e-07 -1.48886e-07
2.83505e-09 1.22846e-08 3.37387e-08
-1.43157e-09 1.7166e-08 3.69198e-08
1.0554e-06 5.71528e-07 9.36399e-08
1.02463e-06 7.3893e-07 -9.31596e-08
6.39929e-08 8.81255e-08 -2.16113e-08
5.55648e-05 3.0086e-05 -4.52098e-05
5.43055e-05 2.92551e-05 -4.85554e-05
3.70162e-08 9.09051e-08 1.60794e-08
4.50555e-08 -2.19208e-08 1.48316e-09
4.36906e-07 3.79326e-07 2.2715e-07
2.15152e-07 1.41701e-07 9.92205e-08
7.17846e-07 3.91171e-07 -3.01623e-07
8.64845e-07 4.12668e-07 -3.26984e-08
-6.97981e-09 1.23861e-07 -1.13612e-08
1.33134e-07 1.71805e-07 -6.54555e-08
3.57774e-07 2.58767e-06 -8.99907e-07
1.33433e-06 9.57435e-07 7.05376e-08
7.37691e-09 -1.53229e-09 -1.26561e-08
-1.74079e-09 -3.27913e-10 1.0272e-08
3.02418e-05 9.14177e-06 1.06588e-05
3.16933e-05 1.01751e-05 1.29387e-05
-4.40325e-08 5.10205e-08 -1.05088e-07
-3.03379e-08 6.5571e-08 -1.27796e-07
2.49193e-06 1.26343e-05 2.92681e-06
1.2868e-07 1.61112e-07 -2.27366e-07
1.25045e-07 1.88024e-07 -2.46149e-07
3.51561e-08 1.39409e-07 1.59146e-07
8.02793e-08 2.26574e-07 2.53641e-07
2.77045e-06 8.21995e-07 -5.06581e-07
-2.27598e-09 7.181e-06 1.15955e-06
-2.39544e-06 3.59701e-06 5.76728e-07
6.78092e-07 1.58152e-08 -3.11759e-07
2.15577e-07 5.44059e-07 3.3158e-07
2.78853e-07 8.6834e-07 5.07369e-07
-6.31955e-08 8.32991e-08 -1.3553e-07
-6.21422e-08 5.98278e-08 -9.91353e-08
1.26588e-07 2.4634e-07 -1.77499e-07
2.56901e-08 1.56057e-07 -1.05303e-07
-4.92689e-05 2.07871e-05 -2.78448e-05
-4.46291e-05 2.22922e-05 -2.76456e-05
2.81449e-06 1.27337e-06 1.5008e-07
2.42669e-06 1.47988e-06 -6.83683e-08
-5.01143e-07 1.75336e-07 -6.03114e-08
-1.43481e-06 3.365e-08 4.49027e-07
-6.42512e-07 4.02419e-07 -4.49928e-08
9.3862e-07 1.07351e-06 6.85283e-08
2.01069e-07 2.75256e-07 1.63124e-08
4.61154e-05 4.9649e-05 7.29498e-05
-6.02292e-06 2.84356e-06 1.50034e-06
4.71511e-05 4.94057e-05 7.87055e-05
-2.45705e-09 8.4581e-09 -9.89593e-09
-1.58167e-09 6.67567e-09 -7.43493e-09
3.95906e-05 6.47295e-05 0.000133127
3.97138e-05 6.47568e-05 0.000122858
-5.69861e-10 -3.30475e-10 1.06949e-09
-1.09182e-09 8.92062e-10 2.47962e-09
3.70402e-07 5.63641e-07 -5.07388e-08
2.95855e-07 6.27967e-07 -1.35742e-07
4.05445e-05 3.33082e-05 -3.86464e-05
3.70467e-05 3.50235e-05 -4.47752e-05
2.1253e-07 8.19051e-08 -1.12296e-07
-3.94896e-09 -1.53665e-09 6.73186e-09
2.49505e-07 1.99549e-07 -2.03381e-07
7.38499e-09 1.34603e-07 -1.08306e-07
2.31558e-07 3.76349e-08 -8.51169e-08
-2.54313e-09 1.35246e-07 3.41411e-08
6.02629e-07 3.2094e-07 1.20511e-07
6.42921e-07 3.4665e-07 4.62762e-08
8.98361e-08 1.36356e-07 1.26154e-07
9.30823e-08 5.78501e-09 -5.71415e-08
1.57313e-06 3.93781e-06 -3.6241e-07
4.22429e-05 6.41581e-06 -2.77564e-07
-4.69345e-08 2.65331e-07 7.18096e-08
-7.99066e-08 3.68156e-07 9.79519e-08
3.60436e-05 6.16364e-06 -1.0296e-05
3.88823e-05 6.90935e-06 -1.09171e-05
5.01994e-08 9.7535e-08 -2.95736e-08
7.07146e-08 1.98032e-07 -4.03645e-08
-6.06839e-05 2.79794e-05 4.76943e-05
-5.19138e-05 3.00585e-05 4.69891e-05
0.000362659 2.89729e-05 9.02883e-05
0.000282949 4.39164e-05 0.000140356
-5.23641e-05 2.1225e-05 3.16542e-05
3.13059e-07 2.36139e-07 6.45213e-09
9.38399e-07 5.09655e-07 -1.59345e-07
1.10469e-07 1.88339e-07 -5.45279e-08
8.40832e-07 6.48906e-07 1.56622e-07
7.02945e-08 2.11967e-07 -6.49435e-08
8.34362e-08 1.78535e-07 1.63002e-09
4.25971e-07 -2.02595e-07 4.20831e-07
4.45667e-07 3.20562e-07 -2.74226e-07
4.1035e-07 4.09155e-07 -3.45101e-07
7.33606e-05 2.80291e-05 4.83943e-05
7.69802e-05 2.71657e-05 4.96952e-05
7.1947e-07 -5.1692e-08 5.06185e-07
5.22206e-07 3.06371e-07 6.31359e-09
-7.92558e-08 3.75428e-08 3.25785e-09
-1.11942e-07 6.11298e-08 2.17457e-08
1.22551e-06 5.25975e-05 7.62819e-05
-1.1112e-05 4.90274e-05 6.66554e-05
7.20734e-07 4.21216e-07 2.65736e-07
8.83886e-07 3.51145e-07 2.7764e-07
1.75208e-07 1.5609e-07 7.93146e-08
2.9175e-07 3.708e-07 1.58469e-07
1.04496e-07 1.02487e-07 -1.36274e-07
1.19035e-07 8.05316e-08 -1.16927e-07
1.83746e-09 1.04631e-08 1.06741e-09
1.44748e-09 1.0187e-08 1.47189e-09
9.01807e-08 6.62657e-08 -9.96139e-08
3.36656e-09 3.82158e-09 -1.05324e-08
-1.43955e-09 6.1035e-09 -7.00664e-09
4.18396e-05 1.66691e-05 -1.64284e-05
8.36371e-07 6.82367e-07 2.90161e-07
8.78731e-07 6.40292e-07 1.26262e-07
3.49783e-05 1.12495e-05 -1.10342e-05
3.94044e-05 1.62935e-05 -1.8387e-05
4.11405e-09 1.48592e-08 -3.17669e-08
1.36866e-10 8.1183e-09 -1.63686e-08
6.15407e-08 2.58432e-07 1.94932e-07
1.90175e-07 2.40264e-07 1.98903e-07
1.57297e-06 1.16939e-06 9.43237e-07
1.94909e-06 1.07983e-06 6.96751e-07
2.18694e-09 7.4333e-09 5.99949e-09
8.53393e-10 7.93986e-09 7.14042e-09
3.45155e-07 2.42062e-07 -5.36529e-08
7.7734e-10 3.30059e-09 5.76574e-09
-2.8402e-08 2.00383e-08 -1.09737e-08
-2.16152e-08 1.01441e-08 3.26616e-08
3.28877e-07 2.50084e-07 1.53044e-09
4.2728e-07 3.31221e-07 1.60613e-08
1.13701e-08 -1.1885e-09 2.60236e-08
-3.10192e-09 1.19545e-08 3.97277e-08
1.07637e-09 -4.92703e-09 -1.61288e-08
-2.24919e-06 2.72713e-07 6.30769e-07
5.22133e-08 -1.92604e-08 -2.99888e-09
-2.31944e-06 3.4732e-07 3.28037e-07
7.69499e-07 1.49057e-06 2.64567e-07
6.74177e-07 9.69048e-07 1.71763e-07
1.05551e-07 3.1706e-07 1.63555e-07
1.72031e-06 5.54914e-07 -2.74846e-07
4.47446e-07 2.04872e-07 1.34157e-07
4.5935e-07 2.87359e-07 1.3288e-07
1.4391e-07 3.42707e-07 1.56427e-07
-3.48436e-08 1.68012e-07 1.6099e-07
-1.57229e-08 1.77539e-07 1.56069e-07
4.22496e-08 1.23034e-08 -4.90587e-08
7.078e-08 6.69457e-08 -5.39713e-08
2.33313e-07 1.28869e-07 -1.32914e-07
1.62547e-06 1.02287e-05 1.74149e-06
6.08936e-09 9.43742e-09 3.4534e-08
1.27174e-09 8.29978e-09 2.39359e-08
1.15468e-06 7.84361e-07 -1.87386e-07
7.77058e-07 1.20029e-06 1.23999e-08
1.97376e-06 1.29073e-06 -7.14616e-07
1.33832e-06 9.88394e-07 -5.6232e-07
1.14626e-06 1.12939e-06 4.28719e-07
3.76868e-07 3.16998e-07 -8.2059e-09
3.47629e-07 2.81517e-07 7.5666e-08
2.97344e-07 2.3378e-07 -2.24735e-07
-1.17851e-08 2.02602e-08 8.18387e-09
-7.86141e-09 2.5364e-08 -1.82428e-09
-8.33435e-09 2.48695e-08 -4.02195e-09
7.39888e-08 3.01721e-08 -7.90932e-08
1.36668e-08 5.71556e-08 -8.67706e-08
7.54138e-08 1.16123e-07 -1.85176e-07
-1.16039e-08 6.79973e-08 -7.46337e-08
1.38216e-07 2.15448e-07 1.64245e-08
2.65167e-06 5.96696e-06 -4.27087e-07
2.27428e-08 1.76875e-08 5.78115e-08
1.64868e-08 1.71362e-08 5.88626e-08
7.85685e-07 9.60893e-08 2.2271e-07
3.84995e-06 1.30478e-06 -8.8599e-08
1.47527e-07 2.61806e-07 -1.05419e-07
1.98784e-07 1.53041e-07 -1.00579e-07
2.24735e-07 4.84032e-07 2.87506e-08
4.71216e-08 9.03497e-07 7.11445e-08
1.88109e-08 7.15018e-08 7.74974e-08
1.36865e-08 7.29653e-08 7.0899e-08
2.109e-08 2.51561e-08 -4.45841e-08
1.84329e-08 5.31408e-09 -1.85942e-08
1.43876e-08 3.78256e-09 2.2025e-08
1.65031e-08 1.26636e-08 3.80012e-08
1.46731e-08 1.91976e-08 -3.66715e-08
9.58265e-06 4.59506e-06 1.28351e-06
2.58061e-05 2.26223e-05 -1.86798e-05
-4.66987e-09 1.95366e-07 2.44298e-07
-1.04365e-07 1.58014e-07 1.90582e-07
8.76443e-07 1.68882e-06 -2.90996e-07
8.0062e-07 1.96444e-06 -2.49223e-07
0.000240658 2.46918e-05 6.98168e-05
0.000216936 2.91667e-05 8.42276e-05
2.40624e-05 2.09833e-05 -1.7628e-05
9.33684e-06 7.34987e-06 3.72176e-06
-8.77343e-07 7.36883e-07 -1.81851e-07
-8.9816e-07 5.76986e-07 -1.61743e-07
6.01387e-06 4.55515e-06 1.81457e-06
3.00295e-05 2.40314e-05 2.31516e-05
2.66479e-05 1.85136e-05 1.73749e-05
8.14285e-10 -5.31325e-09 1.90798e-08
-2.10249e-08 1.59638e-08 -1.49186e-08
-1.30682e-07 5.90806e-08 5.47966e-08
2.67083e-05 1.79197e-05 1.4975e-05
-2.11464e-07 6.21152e-08 -5.42848e-08
-1.66783e-07 7.90765e-08 2.38388e-08
-4.64978e-07 2.83605e-07 -2.06996e-07
-2.86592e-07 1.59873e-07 -1.22724e-07
-2.07845e-07 7.94096e-08 -1.16782e-08
7.63226e-07 5.49351e-06 -2.5546e-07
9.65621e-09 5.6719e-09 -6.71236e-09
9.99166e-09 7.42694e-09 -1.12007e-08
-1.51886e-08 3.46675e-08 -2.91791e-09
6.28738e-09 2.50334e-08 1.61916e-08
-5.66388e-09 1.46516e-08 9.69371e-09
-1.60853e-08 2.97152e-08 1.14648e-08
-1.97844e-08 2.57972e-08 6.19699e-09
-3.26934e-08 5.82731e-08 -6.65741e-09
4.54987e-08 4.57288e-09 -5.17691e-08
2.89173e-07 3.38608e-07 4.35898e-08
2.9319e-07 1.63931e-07 -1.1459e-07
2.1286e-07 2.02299e-07 2.10926e-08
-2.35403e-08 9.93814e-08 -1.44058e-08
9.81773e-07 5.18062e-07 -5.29948e-08
-3.82732e-06 3.28344e-06 2.05342e-06
-2.40818e-06 3.40884e-06 2.09212e-06
-1.07695e-06 8.49307e-08 3.40681e-07
-9.18848e-07 -4.79043e-08 5.84089e-07
1.61381e-06 8.18587e-07 -9.89314e-08
1.4661e-06 2.65646e-07 5.10767e-07
-1.37044e-08 8.57412e-09 5.05914e-08
-5.35846e-07 -2.90832e-08 -5.27066e-07
-9.53961e-07 6.56669e-08 -4.78243e-07
-4.21054e-09 2.43701e-10 2.07364e-09
-1.0057e-08 6.39097e-09 1.19188e-08
-1.04066e-08 -1.00966e-09 -4.42598e-09
1.88881e-07 5.43756e-07 1.37304e-07
1.35891e-07 5.29716e-07 1.14941e-07
-2.70106e-08 2.17965e-08 1.98166e-08
3.56348e-07 2.51278e-07 -2.79114e-07
-7.53102e-08 2.30107e-07 1.05387e-07
-1.67015e-06 2.20077e-06 3.57531e-07
-1.58818e-06 2.13e-06 2.94452e-07
-1.54811e-07 2.08295e-07 1.0462e-07
-1.24473e-07 1.1291e-06 -7.21734e-08
-6.43425e-08 1.18056e-06 -1.06124e-07
3.17493e-07 6.16587e-07 -4.68784e-08
-2.60499e-08 2.63915e-08 3.18177e-08
1.58557e-06 2.99924e-06 -1.12765e-06
1.92782e-06 1.97685e-06 -4.07309e-07
-2.86527e-07 2.1909e-06 -1.07703e-06
-3.11912e-08 3.57049e-09 -1.24927e-08
4.26287e-05 3.35549e-05 4.74834e-05
3.107e-05 3.21758e-05 4.26628e-05
6.33894e-09 -1.6339e-11 -1.50741e-08
1.16671e-09 7.92487e-08 3.36554e-08
5.0411e-05 3.07137e-05 -3.85589e-05
1.31196e-08 1.33037e-07 6.3165e-08
2.2737e-08 2.73129e-08 5.39522e-08
3.84586e-08 2.33477e-08 5.41558e-08
3.7002e-07 3.98332e-07 -3.44785e-07
2.47062e-08 2.37213e-08 4.25328e-08
2.4127e-06 7.07419e-06 -1.41065e-06
4.0671e-06 2.86924e-06 -1.68708e-07
1.16032e-08 6.55324e-08 8.39904e-08
-1.36353e-08 7.49065e-08 1.97456e-08
-2.36653e-08 1.31757e-08 2.70611e-08
-1.19868e-08 4.5279e-10 7.29071e-09
7.8856e-06 1.70785e-06 -7.69896e-07
1.0045e-05 2.53243e-06 -4.17411e-06
-2.36038e-06 1.78821e-06 1.28921e-07
-1.62103e-07 4.05951e-07 5.08102e-08
2.77097e-06 1.08881e-06 -2.56115e-07
-5.6e-08 7.89197e-08 6.13895e-09
-2.25522e-08 9.1932e-08 -5.99804e-09
-1.74875e-06 1.01144e-07 7.04834e-07
-2.06545e-06 6.01911e-07 -7.22283e-07
-1.01574e-06 2.49242e-07 -8.83859e-08
-1.19221e-06 1.47481e-07 -3.93883e-07
-7.56848e-08 1.02696e-07 -6.62961e-08
-4.39279e-07 3.93931e-07 8.79718e-09
5.23445e-07 1.72806e-07 -2.79507e-07
5.22477e-07 1.92615e-07 -2.25438e-07
-4.6077e-07 4.04658e-07 1.42087e-08
6.46252e-07 4.97023e-06 7.84942e-08
1.8513e-06 4.12875e-06 3.29665e-08
1.23135e-06 3.42353e-06 1.74592e-07
1.25298e-08 1.52692e-08 5.37801e-08
8.7472e-06 1.87724e-06 4.53517e-07
9.87644e-06 2.13683e-06 -1.75124e-06
-1.48475e-06 6.1802e-06 -1.07217e-06
1.19556e-08 -1.83433e-09 1.45075e-08
1.99191e-06 3.92129e-06 7.66379e-08
2.44742e-06 1.07182e-05 6.01682e-06
5.24338e-06 5.94942e-06 2.50886e-06
1.1895e-05 1.04558e-05 4.91554e-06
9.51147e-08 4.05893e-07 6.46748e-08
5.56e-08 5.40265e-07 4.42303e-08
-2.62828e-07 1.38804e-06 1.56493e-07
-2.57396e-08 7.37161e-07 8.43574e-08
7.14763e-07 3.10818e-07 1.61917e-07
3.26166e-07 5.3218e-07 9.76833e-08
2.0071e-06 6.81458e-07 -2.51629e-08
2.8221e-06 1.23169e-06 5.34045e-07
-3.40939e-08 6.03259e-10 2.56046e-08
-2.89272e-08 -2.63684e-09 1.22986e-08
7.45916e-08 2.01105e-08 -8.44504e-08
5.82368e-08 9.6627e-09 -5.15498e-08
-2.05589e-08 6.60728e-08 9.93813e-08
1.28601e-08 5.43316e-08 1.06131e-07
-1.56981e-08 5.60559e-08 9.2969e-08
2.71607e-07 1.03428e-07 2.08175e-07
4.13723e-07 2.56642e-07 -8.08317e-08
5.93426e-07 2.80226e-07 1.46244e-07
2.35545e-08 7.82532e-08 -8.49346e-08
1.27343e-08 7.96845e-08 -8.10209e-08
-5.64713e-08 5.99079e-07 -3.44622e-07
2.23565e-08 3.41739e-07 -2.01272e-07
-1.9767e-07 2.79846e-06 -5.15105e-07
-8.00362e-07 1.90817e-06 -3.52683e-07
-1.5213e-08 6.58126e-08 -5.81594e-08
2.12101e-07 -1.47678e-08 -3.92408e-08
-1.9115e-08 5.46876e-09 1.12848e-08
1.31745e-08 3.50575e-08 -5.34244e-08
-1.73027e-06 3.69684e-06 -1.60898e-07
-8.07239e-08 3.73932e-07 -2.77713e-07
-1.44327e-07 3.22876e-07 -2.27656e-07
2.46699e-05 3.66846e-05 3.54731e-05
1.78566e-06 9.4267e-07 1.42995e-06
0.000107629 9.6348e-06 9.82119e-07
0.000123976 1.05745e-05 -1.7409e-05
9.14568e-05 1.10203e-05 -3.10357e-05
0.000115658 1.04926e-05 -1.19086e-05
1.88711e-06 9.10288e-07 1.5016e-06
2.36887e-05 2.8165e-05 2.62648e-05
2.27662e-05 2.7891e-05 2.38749e-05
4.56922e-08 3.07512e-08 -8.36922e-08
-2.52184e-08 5.90389e-09 -3.12508e-08
-1.30677e-08 4.85525e-09 -5.2722e-08
5.1468e-08 1.98444e-08 -6.97952e-08
2.30372e-08 9.74249e-09 -3.50187e-08
1.45378e-07 2.582e-07 9.2442e-08
1.02667e-07 3.91413e-07 2.39431e-07
-6.56877e-07 9.35903e-08 2.25526e-07
-2.4099e-05 9.27073e-06 -8.79529e-06
-2.30045e-05 1.18662e-05 -1.28885e-05
-9.13496e-07 7.73285e-07 -2.14924e-07
2.19642e-07 2.10848e-07 -1.71222e-07
3.5379e-07 3.96442e-07 1.04169e-07
1.9169e-07 5.42033e-07 -2.85582e-07
1.80203e-07 2.23292e-07 -1.49241e-07
1.17795e-07 4.61318e-09 7.06938e-08
9.63623e-08 5.19696e-08 1.24565e-07
5.9932e-08 3.11239e-08 7.99055e-08
1.27173e-06 1.67567e-06 -1.17566e-07
1.4007e-06 1.90461e-06 -1.19917e-07
-5.03462e-05 2.09539e-05 -3.09435e-05
-1.01929e-07 2.23197e-07 5.87791e-09
3.05045e-08 5.57055e-09 1.93314e-08
-2.85592e-08 6.33905e-08 1.14585e-07
6.75675e-07 2.03657e-06 -2.17821e-07
6.94949e-07 1.36346e-06 -1.72677e-07
-5.76733e-08 1.00761e-07 -1.21467e-09
1.2369e-07 1.95409e-07 2.82896e-09
-1.15211e-07 1.78018e-07 -1.22441e-08
-1.88411e-05 1.11544e-06 -1.05522e-06
5.07302e-09 1.13126e-07 -5.41435e-08
-1.43032e-09 9.61094e-08 -4.72126e-08
-8.24629e-06 -7.67452e-07 -2.59839e-06
8.20092e-07 7.84874e-07 -2.90657e-07
-1.43033e-05 3.89947e-06 3.67249e-06
-1.15833e-08 1.05532e-07 -1.31767e-10
1.79758e-06 6.45801e-07 1.76039e-07
1.96298e-06 5.22075e-07 5.01559e-07
2.67306e-09 7.02547e-08 -3.75336e-08
-1.0256e-08 8.14054e-08 2.30967e-08
1.17034e-07 2.11816e-07 -1.29439e-07
1.74713e-08 -9.5869e-09 -1.89337e-08
1.73018e-08 1.39065e-09 -3.81356e-08
4.54934e-07 4.88196e-07 -1.40813e-07
5.72258e-07 4.09547e-07 6.41855e-08
2.88713e-06 2.35743e-06 9.75666e-07
3.60983e-05 3.63944e-05 4.66417e-05
2.8842e-05 3.62364e-05 4.31159e-05
1.6728e-08 8.3915e-10 -1.01027e-09
-1.42148e-08 4.49764e-10 -1.82654e-08
2.42481e-05 3.23415e-05 3.62843e-05
3.63082e-07 1.00393e-07 1.54475e-07
1.78565e-07 1.49503e-07 8.43772e-09
-2.30571e-08 5.71281e-08 -2.89918e-09
-9.63953e-08 1.78183e-07 1.60205e-07
-8.9161e-08 1.95219e-07 1.60578e-07
-5.90851e-07 3.24943e-06 2.66669e-07
-8.64318e-08 3.85114e-08 3.51379e-08
-2.72431e-08 1.17964e-07 9.15896e-08
-5.98069e-05 3.58058e-05 -5.61977e-05
-4.62962e-05 3.0142e-05 -4.36789e-05
-7.38845e-07 3.27384e-06 2.81185e-07
1.03868e-06 1.25392e-06 -2.6525e-07
-2.83274e-07 2.73836e-06 3.57723e-07
-2.61915e-09 -1.95295e-09 -2.56097e-08
7.21157e-08 7.29491e-07 -2.45412e-07
-1.75362e-06 3.65351e-05 -3.54066e-05
2.63727e-07 3.73526e-07 -5.11172e-08
9.76356e-07 6.70978e-07 7.04294e-07
6.26628e-08 1.09767e-07 -5.6218e-08
-3.37806e-08 4.83669e-08 2.87063e-08
9.04601e-09 2.40803e-09 -4.92493e-09
-3.80222e-09 3.51507e-09 -2.19275e-08
-1.44954e-05 2.12529e-05 -2.08234e-05
-3.13029e-08 6.39084e-08 9.70462e-08
1.39472e-06 5.18134e-07 -2.14429e-07
-5.27043e-09 -2.62084e-09 1.59381e-09
6.21462e-08 1.27141e-07 1.37804e-07
2.03491e-08 1.6481e-09 2.19305e-08
1.86386e-05 2.61124e-05 -1.86895e-05
2.71388e-07 8.53674e-08 -1.05047e-07
1.23867e-05 2.76725e-05 -2.26754e-05
0.000494362 1.40396e-05 -0.000114363
0.000495327 1.8493e-05 -0.000108709
1.3401e-08 9.7077e-08 9.18858e-08
4.01268e-05 7.05815e-05 -0.000184229
1.09385e-08 1.09576e-07 8.81554e-08
-5.50814e-08 7.18567e-08 1.37448e-08
-6.43585e-08 5.22569e-08 -6.17451e-09
4.03377e-08 1.51325e-07 1.26479e-07
1.11441e-06 1.1494e-06 -3.65538e-07
1.4127e-08 1.62819e-09 -1.13391e-08
3.53814e-07 2.8258e-07 -1.06671e-07
3.29349e-05 4.03487e-05 -4.36317e-05
3.57244e-07 1.97551e-07 7.16792e-08
3.60905e-07 1.57914e-07 1.38404e-07
3.70551e-07 1.8942e-07 1.16512e-07
3.21865e-05 3.99095e-05 5.68507e-05
-9.48495e-08 5.07572e-08 -1.99905e-08
-8.33003e-08 4.36294e-08 -4.98623e-08
-1.62208e-07 1.05633e-07 -1.59592e-08
-2.92097e-07 2.57797e-07 -7.289e-08
3.75307e-05 4.4418e-05 6.15298e-05
7.69009e-06 2.67978e-06 -2.88826e-07
1.89909e-06 5.51844e-06 -2.98659e-06
1.87586e-06 4.83552e-06 -2.45127e-06
0.000314156 1.80191e-05 -6.9353e-05
0.000299176 1.97216e-05 -6.67587e-05