# vtk DataFile Version 2.0
S, Created by Mohamad Ibrahim Cheikh
ASCII
DATASET UNSTRUCTURED_GRID
POINTS 10490 double
-223.577 20.3387 -34.7914
-223.731 23.2843 -32.7646
-130.492 -29.3148 69.281
-194.384 -37.8826 -41.0226
-207.475 29.505 40.0419
-235.879 27.3962 13.4742
-191.275 -39.7121 -41.0815
14.4231 -3.1533 87.7986
-191.079 39.2148 -41.667
-193.42 36.9263 -42.4284
-251.147 3.21172 -3.38044
-251.007 5.46192 -0.714731
-204.327 29.296 -42.1226
18.6254 -1.55067 87.7446
-201.23 30.3626 -43.1793
-151.359 68.7347 -14.653
-148.576 69.9437 -12.2173
241.381 21.7604 -11.7087
240.378 24.3444 -8.78238
39.8319 72.8638 -47.3352
43.6593 72.1633 -47.9906
45.4588 -3.21841 -86.4907
49.3171 -1.52466 -86.2781
-145.563 -45.4966 -55.4971
-142.059 -46.9214 -55.4225
-191.797 -27.3659 49.9135
-189.472 -30.0439 49.4587
-64.3393 -67.8374 51.3349
-66.4792 -66.0173 53.3351
-121.231 -41.6814 -64.8639
-205.497 44.6046 24.1729
-208.436 41.8685 25.9222
-64.8767 -22.6174 81.9582
-61.2393 -23.9431 81.9242
44.3314 4.15815 86.5223
-201.399 -44.9177 27.5763
-53.1646 82.4136 -24.6161
-50.1254 82.041 -26.5642
-109.541 -78.4117 -11.2481
-105.515 -79.2424 -10.0781
-195.502 42.6366 35.3085
-200.947 -43.0033 30.8385
-54.4305 -15.3499 84.532
3.53053 8.24415 87.6043
226.254 36.0724 -13.2453
223.494 37.2786 -15.4583
-147.007 22.4145 -67.7918
-143.844 23.668 -68.1954
-167.021 -43.0244 -49.7753
-163.503 -43.4794 -50.7995
-215.267 -7.15949 -44.937
-215.167 -3.1637 -45.4515
-105.642 -17.638 77.888
-104.106 -21.1738 77.2577
-247.959 -12.5236 7.72451
-247.222 -12.225 10.5722
-226.224 -18.8471 33.5128
-129.026 -40.834 -63.5483
238.447 4.07548 -27.6833
236.191 2.118 -30.1592
30.7034 -3.75806 -87.2609
26.7294 -2.03228 -87.478
-224.961 -22.5406 32.2498
-47.6603 -75.8723 41.3436
-235.553 -26.7707 15.3058
-110.356 51.1497 -60.305
-237.919 -25.2894 13.1987
-16.8375 -1.51016 -87.7896
-20.021 -4.04329 -87.6275
25.3099 7.47134 -87.2339
27.3955 3.66694 -87.3995
25.4697 1.68237 -87.5314
45.9814 -6.34089 -86.2841
-242.159 -16.9752 16.6255
249.587 -5.36908 -9.40943
249.11 -2.30255 -11.8807
-169.143 48.1637 43.836
30.4497 -13.4937 -86.3041
-165.518 47.9332 45.7413
-244.371 -14.4433 14.9727
243.986 6.92791 20.1942
244.544 3.56432 20.2422
-218.53 -34.2529 26.9078
-142.146 -69.4109 21.2689
-139.63 -70.7398 18.7862
-221.096 -32.0565 27.0477
-157.971 -59.8001 33.3574
-205.04 32.4605 39.2834
-154.319 -61.3639 32.6016
21.3256 7.33774 87.3755
-119.085 18.4969 75.2706
-116.414 20.5788 75.2416
25.5781 -59.0337 64.6446
29.1132 -57.6631 65.6901
-134.581 55.0257 -49.987
-136.881 52.5411 -51.8606
-177.095 57.9161 23.4518
-176.704 59.3878 19.856
-70.1155 65.1353 -53.847
-62.7693 16.9242 -83.5176
-66.3837 16.9207 -83.1755
-66.5754 66.6628 -52.5111
124.468 57.744 50.1289
121.035 58.3501 50.4551
-132.441 -69.8471 26.7932
-132.815 -68.0012 30.9871
-188.871 35.116 46.2977
-185.124 37.2856 46.454
-232.727 13.1735 -30.6499
-60.1273 75.0614 40.8308
-61.4439 76.5775 37.652
-231.927 16.7977 -29.6018
-175.271 -46.9571 -42.1659
-178.792 -11.2327 60.8616
-181.8 -8.37659 60.2276
-195.825 53.7506 12.6484
-198.379 52.0637 14.6695
-195.137 -6.40471 -55.1456
-196.111 -2.36531 -55.0435
-155.758 25.0347 64.3974
-159.472 22.4792 64.2272
-196.21 -54.5515 -7.39854
-193.182 -56.048 -5.79663
-91.3189 75.179 -32.7285
-87.3445 75.5535 -33.1911
-39.2311 -78.9678 -36.3271
-42.7323 -77.655 -38.6024
-35.7204 20.4888 -84.664
-119.251 -59.0788 -50.1264
-116.055 -58.3913 -51.8214
-103.566 -58.9125 54.4072
-107.461 -57.2218 55.2799
-176.095 46.9022 -41.8053
26.905 13.9558 -86.3748
23.8045 15.7619 -86.1753
-175.608 44.5875 -44.502
-89.4465 -39.5948 72.0883
-93.3164 -38.4593 72.1024
-1.70673 -75.0131 -46.0073
2.6323 -75.2492 -45.6148
-158.023 -33.1983 -59.8718
-154.736 -36.6333 -58.9118
26.0199 72.7713 48.6359
28.4625 70.7517 51.3714
-166.6 38.8036 53.2932
-169.008 36.4284 54.0361
126.648 60.2628 46.3536
125.007 62.2378 44.241
55.925 20.2537 83.3719
-158.156 12.6386 67.2447
-155.547 9.85496 68.4448
-44.2492 73.2179 -46.2971
70.982 53.0591 -65.6649
-41.5834 74.8955 -43.8516
222.064 -27.8283 -30.5324
225.276 -26.0124 -29.2251
-17.7676 79.2595 -37.7264
-20.4928 77.985 -40.1364
247.477 -7.06406 13.9944
245.671 -9.0724 16.5073
-182.895 19.8511 57.0488
-181.353 22.6937 56.5896
-55.8124 68.4447 51.7489
-53.546 70.3078 49.4953
-221.674 26.3866 -32.1182
245.289 -12.7014 14.7128
-123.338 -44.6613 -62.3452
-128.466 -46.9013 -59.361
-126.784 -44.2471 -61.7917
-219.064 -11.0543 41.7912
-206.373 49.8769 -6.48204
-208.058 48.5143 -9.51797
-173.563 -35.1401 53.1137
-196.134 -34.8662 -42.6454
-56.8495 10.6132 85.0628
-99.7249 80.6401 4.85783
-149.824 -21.4698 67.341
-153.215 -21.7163 66.3203
-105.827 79.7946 2.3816
-103.492 80.0166 5.48229
-208.26 -1.82601 -49.301
-211.702 -0.427713 -47.5052
7.18672 76.3876 -43.6189
8.87922 74.6568 -46.4835
-19.1158 85.9019 -17.892
-22.4147 85.1251 -20.8855
12.6455 74.186 -47.126
-209.32 34.9062 -34.0774
-209.434 37.4787 -31.1322
-243.67 12.2892 -17.9906
-206.001 40.0872 -30.6842
-237.952 16.7281 23.0653
-240.125 13.5343 22.3944
-198.673 34.6961 41.3246
-44.0939 -51.8622 -69.3994
-47.9388 -52.1811 -68.846
-65.0445 78.2633 -33.1794
-61.9555 79.2585 -31.4983
-198.909 37.6912 38.4633
-195.383 39.9826 38.3623
193.194 51.8476 -22.051
191.208 51.612 -24.5777
-17.4592 72.3408 -49.7341
-16.0256 70.6375 -52.1814
-160.719 -8.68018 67.1281
-158.266 -5.14658 68.1971
-159.181 -12.1859 67.0321
-155.589 -13.952 67.7168
-181.218 -39.3689 -46.6206
-187.069 -34.8948 -47.349
234.201 -8.19821 31.0077
231.367 -8.83969 33.3482
-185.724 -37.8059 -45.7346
-220.423 -36.3319 -21.8073
-223.2 -33.1948 -23.2994
-74.5032 69.5105 47.2516
-199.256 43.3658 -31.6635
-202.42 40.5114 -32.9603
-79.2059 71.8907 42.5165
-75.3927 71.684 43.6978
-199.863 -47.1006 -25.2001
-196.405 -49.1628 -24.5819
-156.238 -38.5654 57.1676
-155.217 -34.6067 59.9729
-162.922 56.2507 -36.471
-159.777 58.08 -35.2878
245.94 -16.0778 8.95229
246.756 -13.0534 10.9095
-202.194 25.1219 -45.9092
246.469 -16.6406 5.4593
-222.674 -40.7297 -3.81017
-219.563 -42.6766 -4.53642
-225.915 36.4521 -12.9115
-224.09 36.2106 -16.8757
-228.9 -34.8682 10.6497
-231.376 -33.5774 7.89111
-225.472 -37.7616 9.69481
119.59 74.8239 19.86
-172.164 -51.1021 -38.7774
115.395 75.6385 19.8124
47.9081 12.1547 -85.5293
51.4961 10.7628 -85.4605
-180.222 -22.1779 57.233
-179.959 52.3176 -32.279
-165.455 0.845995 66.2698
-168.579 2.82278 65.2434
-181.021 -17.4202 58.5547
36.4526 -59.756 63.3288
37.7866 -57.2093 65.5461
-159.985 -59.9394 -31.9004
-182.768 -21.7985 -56.384
-184.314 -18.0315 -57.0938
-11.9479 14.9893 -86.6132
-188.59 -54.9979 19.1012
-192.466 -53.1212 19.67
-145.947 9.32971 -71.0572
-143.744 12.1299 -71.1841
-174.382 52.4114 35.6936
-173.44 50.7109 38.5943
-187.187 39.7089 -43.3284
-231.501 33.4938 -7.79791
-229.095 35.9682 -4.96003
-234.906 30.8696 -5.93935
241.404 7.72076 23.4444
239.892 10.8366 24.102
240.609 13.4017 21.8298
-138.879 -61.8303 -39.4922
-138.123 -60.1631 -42.2928
-141.496 -58.2513 -43.5844
-200.351 -41.1649 -33.6904
-218.717 20.114 -38.506
-52.7034 8.9986 85.5743
-56.6798 -81.1831 27.5677
-60.1942 -81.4609 25.7782
-152.613 56.1693 41.6835
-153.411 58.0463 38.6426
-189.414 -9.8999 -57.0392
-186.067 -8.88078 -58.5361
64.9106 -8.71269 84.5709
67.8934 -7.08146 84.4364
-196.835 -37.22 40.1898
-200.415 -34.6104 40.3555
-180.668 -48.2457 -37.6842
-174.532 -52.0916 -36.0702
-215.619 -38.5089 23.8559
-218.655 -36.415 23.7601
-178.254 -50.9819 -35.4214
-121.63 47.9087 -60.3119
-71.4737 59.4548 59.864
26.8711 -68.3021 54.6847
24.8092 -66.5889 56.8732
-87.2006 -8.60271 -82.0917
-84.0199 -6.29808 -82.7046
-33.4223 85.7322 -16.0383
-36.951 85.2262 -17.7008
-75.267 59.9751 58.7657
-117.694 48.9262 -60.4511
67.0977 -10.9723 -84.0976
63.3486 -11.5774 -84.3721
-122.368 44.7025 -62.5493
-76.3446 63.9614 -54.2159
-79.8442 64.1719 -53.3429
-210.937 -46.4386 -11.8321
-207.911 -47.2775 -14.716
-70.3827 -66.9058 51.586
-82.592 61.6737 -55.7243
181.006 57.5724 -20.4504
187.794 54.7421 -20.727
-57.9836 -57.7706 -63.2055
-60.2466 -59.9504 -60.8734
185.031 56.5054 -18.9617
-52.2221 4.89032 85.943
170.803 -60.94 -21.4145
166.657 -61.8364 -22.799
-242.16 -11.2309 20.9366
-241.443 -7.71459 23.397
231.623 25.8609 -22.5154
229.371 25.1801 -25.8604
225.985 27.6874 -26.9258
-235.384 -18.9699 -24.5115
-234.85 -16.6287 -26.7375
-226.069 27.1609 -27.3719
-222.953 28.4606 -29.1246
-220.769 31.375 -28.1508
-250.634 -7.29557 -0.178368
-176.054 45.3035 43.5529
58.6934 51.2407 -68.5319
59.7662 48.4113 -70.4487
128.114 68.3802 32.5371
131.606 68.3051 30.9501
-176.945 47.6101 40.5469
-181.046 46.7527 39.3092
18.705 -86.418 15.2674
142.037 69.3645 -21.5078
141.102 68.3959 -25.0689
23.2385 -86.1703 15.8921
181.098 -44.0245 42.3149
25.6369 -86.6619 12.3797
-189.027 21.6401 -53.862
-189.447 17.8942 -55.043
-212.326 -45.0147 14.0793
-120.851 -47.0052 -61.2079
-24.3201 -37.2749 79.2601
52.3281 18.5203 -84.058
55.8415 16.7338 -84.1559
-25.2896 -41.1238 77.2951
-119.136 -6.54306 -77.2235
-115.757 -7.75936 -77.7385
-200.052 16.4688 50.7251
-215.148 -43.2645 14.3199
-153.44 33.0229 61.4085
-156.867 31.3465 61.2268
-157.694 28.1953 62.4859
-79.9673 -83.4309 0.603038
-63.4528 72.7052 -44.3286
-62.6801 70.6659 -47.6375
-79.8046 -83.3553 -4.02096
-209.642 -18.6822 44.8798
-60.2416 71.2976 47.0781
-205.671 -19.6752 46.669
-191.283 -46.3887 33.3533
-190.154 -45.0079 35.9359
-195.134 47.3218 29.0313
-192.217 -42.6383 37.4501
-97.7032 19.7688 78.6415
-94.1215 20.9749 78.8636
-195.846 -41.8729 35.9828
-247.679 -8.81259 12.4831
188.065 -42.0219 40.5955
184.93 -44.2656 39.9694
-127.229 75.4957 7.91196
-123.611 76.0219 9.69372
48.8836 1.67979 86.3054
130.447 15.5906 -73.6044
-179.725 46.5168 -40.318
198.596 13.1798 52.3604
200.49 9.43317 52.2853
113.361 74.897 23.6882
109.621 75.346 24.4083
149.567 63.7418 -30.6949
145.739 65.3536 -29.5383
-166.874 -45.6706 -47.4223
129.846 19.3544 -72.837
-209.807 43.7063 -21.0835
-206.946 46.1294 -19.3075
126.471 20.2066 -73.3309
-61.8954 -0.356717 85.2927
-59.1929 2.57116 85.4893
[...]
POINT_DATA 10490
VECTORS F double
1.31337e-08 3.15284e-08 8.09869e-09
1.34316e-07 9.42473e-08 -4.53113e-08
1.27692e-07 6.85648e-07 3.19563e-07
5.8977e-08 -6.68702e-09 -2.80398e-08
2.91011e-07 2.69708e-07 -1.41281e-08
1.88233e-07 2.02772e-07 -8.85345e-09
8.64553e-08 2.79424e-08 -7.6294e-08
-1.79728e-06 2.03387e-06 1.09193e-07
1.01276e-06 7.80446e-07 1.65901e-07
1.1212e-06 6.67115e-07 -4.51704e-08
1.28651e-08 7.69203e-08 -4.39204e-08
1.13673e-08 6.10118e-08 -2.23765e-08
9.76309e-08 3.77811e-07 2.04783e-07
-2.23504e-06 3.58036e-06 1.21357e-07
1.42647e-07 1.12604e-07 -2.21079e-09
3.3882e-06 5.79716e-07 -1.56558e-06
4.42664e-06 7.18306e-07 -2.47857e-06
-1.19011e-08 2.24228e-08 1.16338e-08
-1.39167e-08 2.17185e-08 1.35682e-08
-3.04882e-05 5.65408e-06 5.5624e-06
-2.94898e-05 4.94925e-06 4.15755e-06
-3.3652e-06 1.89541e-06 -2.87077e-07
-3.06009e-06 1.36264e-06 -2.38233e-07
3.13534e-08 2.27834e-07 -1.96848e-07
5.82619e-08 2.54576e-07 -2.33811e-07
1.26853e-08 1.66294e-07 9.71401e-08
-2.6846e-09 1.41929e-07 8.49557e-08
-4.3017e-08 1.78148e-07 2.28815e-07
-1.80447e-07 1.36606e-07 1.41552e-07
2.57792e-07 2.18496e-07 -1.99393e-07
5.93852e-07 2.72459e-07 1.15331e-07
3.88148e-07 3.00307e-07 -1.02931e-07
8.75744e-08 2.88838e-06 8.05571e-07
-3.56729e-07 1.43332e-06 3.86252e-07
-1.8971e-06 2.84621e-06 -1.77817e-08
1.30072e-08 2.86419e-08 5.82843e-08
0.000115893 2.57702e-05 5.5632e-05
0.000127599 3.03678e-05 6.43093e-05
3.93147e-08 8.17851e-10 -5.25731e-08
3.36181e-08 -2.44073e-09 -2.38982e-08
6.59589e-07 3.67598e-07 3.24309e-09
2.52309e-08 2.92953e-08 6.0979e-08
3.45312e-07 2.66843e-06 5.11774e-07
-1.40894e-06 3.34932e-06 -3.08243e-07
-2.34774e-08 1.38818e-08 -1.12938e-08
-3.97762e-08 3.58143e-08 1.59597e-08
1.34105e-06 9.11997e-07 -5.44979e-08
1.09708e-06 1.93541e-06 3.88396e-07
-5.4539e-08 1.07736e-07 -7.07179e-08
-4.76277e-08 1.21375e-07 -8.51169e-08
5.55914e-08 1.54464e-07 -5.72132e-08
7.37658e-08 1.63779e-07 -5.4153e-08
9.48888e-07 2.36625e-06 6.93415e-07
9.83996e-07 2.27951e-06 7.87075e-07
-4.16819e-08 1.01093e-07 8.09308e-11
-2.94065e-08 7.61828e-08 3.90045e-09
5.76624e-08 9.86132e-08 1.03113e-07
1.80829e-07 3.5098e-08 -6.75031e-08
-1.96039e-08 1.30297e-08 -1.8755e-08
-1.85295e-08 7.93894e-09 -1.72087e-08
-2.62955e-06 3.10565e-06 -2.47029e-07
-2.38262e-06 4.07665e-06 -1.83843e-07
1.13045e-08 8.83224e-08 7.13839e-08
-3.72992e-08 5.12652e-08 8.88168e-08
-1.19869e-08 1.28905e-08 -4.31211e-11
1.61158e-05 6.6119e-06 1.99745e-06
-2.19202e-08 3.76768e-08 2.38092e-08
-5.90178e-07 5.13938e-06 -7.45525e-08
1.57503e-07 3.88441e-06 -1.83642e-07
-5.19354e-07 7.57431e-06 6.30267e-07
-3.67328e-06 5.71655e-06 9.88764e-08
-2.34849e-06 4.23693e-06 -2.23184e-09
-1.24204e-06 2.19603e-06 -2.4242e-07
4.87522e-09 4.6071e-08 5.57296e-08
2.67023e-09 1.35666e-08 9.28944e-10
-3.64509e-09 4.79611e-09 -1.02888e-08
2.73959e-07 4.12261e-07 -3.23539e-07
1.02413e-06 1.58675e-06 -2.03854e-07
4.23512e-07 5.86205e-07 -4.26667e-07
3.62383e-10 2.99459e-08 2.96096e-08
-9.84954e-09 1.10782e-08 1.07706e-08
-2.72346e-09 1.14058e-08 2.01931e-09
1.84102e-08 1.62327e-08 3.89696e-08
2.47821e-08 5.6609e-09 3.87518e-08
1.25837e-08 3.07595e-09 2.30338e-08
1.49889e-08 1.88525e-08 3.73442e-08
3.62335e-08 3.24977e-08 7.92673e-08
2.33351e-07 3.15279e-07 -1.11403e-07
3.75465e-08 2.76523e-08 7.38066e-08
1.63596e-07 4.50889e-06 -3.83544e-07
2.15888e-06 2.86919e-06 -2.86905e-07
1.9593e-06 3.37201e-06 -5.51115e-07
-2.46879e-08 1.73039e-07 1.59215e-07
-6.3095e-08 2.55529e-07 2.27728e-07
5.5504e-06 3.68761e-06 2.22978e-06
7.40979e-06 2.87703e-06 5.20341e-07
4.06521e-07 3.56521e-07 -5.04608e-07
1.37729e-06 6.29263e-07 -3.81448e-07
3.52321e-05 2.36449e-05 2.2985e-05
2.53293e-06 1.08574e-06 -1.30514e-08
2.27045e-06 -2.00129e-07 -2.62568e-07
3.46e-05 2.6064e-05 2.77175e-05
-9.84235e-07 3.76278e-07 -1.34241e-07
-1.04631e-06 3.9079e-07 -1.44644e-07
2.74417e-09 1.22718e-08 3.36526e-08
-1.55449e-09 1.71546e-08 3.68291e-08
1.05168e-06 5.69131e-07 9.35923e-08
1.02191e-06 7.34023e-07 -9.05605e-08
6.38654e-08 8.79659e-08 -2.15624e-08
5.44816e-05 2.95228e-05 -4.44507e-05
5.36305e-05 2.88133e-05 -4.78859e-05
3.66908e-08 9.07079e-08 1.62791e-08
4.52346e-08 -2.23513e-08 1.87052e-09
4.37471e-07 3.79471e-07 2.27377e-07
2.15282e-07 1.41218e-07 9.92013e-08
7.1377e-07 3.89148e-07 -3.00773e-07
8.60585e-07 4.10644e-07 -3.25832e-08
-7.31875e-09 1.23538e-07 -1.11772e-08
1.32855e-07 1.71428e-07 -6.53177e-08
3.57133e-07 2.57244e-06 -8.94292e-07
1.32653e-06 9.55347e-07 6.888e-08
7.49455e-09 -1.56911e-09 -1.27657e-08
-1.76073e-09 -3.3716e-10 1.04459e-08
2.99724e-05 8.96234e-06 1.03481e-05
3.14389e-05 1.01461e-05 1.29666e-05
-4.43079e-08 5.10487e-08 -1.0511e-07
-3.05481e-08 6.56226e-08 -1.27871e-07
2.35888e-06 1.24004e-05 2.87906e-06
1.28971e-07 1.61375e-07 -2.2776e-07
1.25359e-07 1.88219e-07 -2.46452e-07
3.50877e-08 1.3956e-07 1.59294e-07
8.03904e-08 2.26958e-07 2.54063e-07
2.74719e-06 8.15286e-07 -5.02072e-07
-4.71285e-08 7.05635e-06 1.13831e-06
-2.38404e-06 3.55523e-06 5.69636e-07
6.80097e-07 1.95655e-08 -3.08968e-07
2.1637e-07 5.44362e-07 3.31861e-07
2.7946e-07 8.67859e-07 5.07196e-07
-6.34219e-08 8.31228e-08 -1.35239e-07
-6.23745e-08 5.977e-08 -9.90406e-08
1.26791e-07 2.46227e-07 -1.77501e-07
2.57831e-08 1.55922e-07 -1.05249e-07
-4.95846e-05 2.05379e-05 -2.7482e-05
-4.45204e-05 2.21851e-05 -2.75347e-05
2.79991e-06 1.26658e-06 1.49392e-07
2.41588e-06 1.47072e-06 -6.63897e-08
-5.03729e-07 1.71391e-07 -5.43182e-08
-1.42833e-06 3.1041e-08 4.50448e-07
-6.6632e-07 4.37483e-07 -5.1559e-08
9.37615e-07 1.06912e-06 6.90475e-08
2.02825e-07 2.74172e-07 1.69562e-08
4.61942e-05 4.8843e-05 7.18384e-05
-5.95956e-06 2.84563e-06 1.51063e-06
4.72514e-05 4.86002e-05 7.75198e-05
-2.44063e-09 8.33806e-09 -9.77368e-09
-1.57883e-09 6.56983e-09 -7.3374e-09
4.54242e-05 6.31331e-05 0.000130017
4.44513e-05 6.35875e-05 0.000120772
-5.78388e-10 -3.75693e-10 1.06398e-09
-1.09566e-09 8.39104e-10 2.45917e-09
3.69926e-07 5.62597e-07 -5.05683e-08
2.96419e-07 6.26305e-07 -1.34861e-07
4.0601e-05 3.33962e-05 -3.88097e-05
3.75389e-05 3.49301e-05 -4.4646e-05
2.11759e-07 8.11482e-08 -1.12268e-07
-3.93783e-09 -1.56914e-09 6.68474e-09
2.49527e-07 1.99338e-07 -2.03233e-07
7.3257e-09 1.34278e-07 -1.08035e-07
2.31659e-07 3.71425e-08 -8.47895e-08
-2.79812e-09 1.35581e-07 3.4066e-08
5.99211e-07 3.1917e-07 1.20229e-07
6.39551e-07 3.44873e-07 4.62508e-08
9.02064e-08 1.36576e-07 1.26448e-07
9.34532e-08 5.43248e-09 -5.70633e-08
1.60511e-06 3.91491e-06 -3.57125e-07
4.11336e-05 6.25998e-06 -5.3185e-07
-4.6974e-08 2.65441e-07 7.18338e-08
-7.98737e-08 3.68032e-07 9.79192e-08
3.52594e-05 6.01908e-06 -9.84459e-06
3.79527e-05 6.72011e-06 -1.0367e-05
4.99061e-08 9.72409e-08 -2.94115e-08
7.04986e-08 1.97807e-07 -4.02447e-08
-5.61858e-05 2.79973e-05 4.78967e-05
-5.00938e-05 2.94073e-05 4.60591e-05
0.000351137 2.71808e-05 8.45637e-05
0.000280388 4.04355e-05 0.000127963
-5.03545e-05 2.1292e-05 3.18636e-05
3.11902e-07 2.34906e-07 6.05831e-09
9.34509e-07 5.07117e-07 -1.59186e-07
1.10516e-07 1.88533e-07 -5.44724e-08
8.37199e-07 6.45773e-07 1.55531e-07
7.02172e-08 2.12238e-07 -6.52401e-08
8.34646e-08 1.78734e-07 1.54668e-09
4.24672e-07 -2.01779e-07 4.19377e-07
4.44649e-07 3.19854e-07 -2.73615e-07
4.09456e-07 4.08297e-07 -3.44371e-07
7.23221e-05 2.73115e-05 4.70637e-05
7.61773e-05 2.6345e-05 4.79464e-05
7.16974e-07 -5.1539e-08 5.04448e-07
5.20127e-07 3.05333e-07 6.0975e-09
-7.82149e-08 3.71045e-08 3.34408e-09
-1.10385e-07 6.03191e-08 2.15273e-08
1.60226e-06 5.16179e-05 7.50119e-05
-1.07325e-05 4.80833e-05 6.54934e-05
7.21052e-07 4.20251e-07 2.657e-07
8.83804e-07 3.50351e-07 2.77552e-07
1.75991e-07 1.55514e-07 7.9438e-08
2.92439e-07 3.70174e-07 1.58532e-07
1.04704e-07 1.02697e-07 -1.36551e-07
1.19219e-07 8.04999e-08 -1.16992e-07
1.81165e-09 1.03326e-08 1.05817e-09
1.42252e-09 1.00536e-08 1.45626e-09
9.03781e-08 6.62599e-08 -9.97072e-08
3.43779e-09 3.67671e-09 -1.03804e-08
-1.4134e-09 5.9348e-09 -6.79761e-09
4.08809e-05 1.65119e-05 -1.63984e-05
8.3268e-07 6.7866e-07 2.87945e-07
8.74727e-07 6.36917e-07 1.25138e-07
3.42012e-05 1.11737e-05 -1.10926e-05
3.85701e-05 1.61602e-05 -1.83626e-05
4.12541e-09 1.48272e-08 -3.17172e-08
1.5136e-10 8.09416e-09 -1.63353e-08
6.15856e-08 2.58844e-07 1.95223e-07
1.90612e-07 2.40538e-07 1.99198e-07
1.56813e-06 1.16231e-06 9.35042e-07
1.94531e-06 1.07092e-06 6.84242e-07
2.13873e-09 7.32603e-09 5.96639e-09
8.19972e-10 7.82479e-09 7.09298e-09
3.44434e-07 2.4144e-07 -5.36044e-08
7.40385e-10 3.2253e-09 5.73949e-09
-2.86807e-08 2.02347e-08 -1.10873e-08
-2.18322e-08 1.02322e-08 3.31201e-08
3.27842e-07 2.49336e-07 1.63223e-09
4.25963e-07 3.30288e-07 1.62041e-08
1.16429e-08 -1.38662e-09 2.60924e-08
-3.00548e-09 1.19488e-08 4.00533e-08
1.2321e-09 -5.12479e-09 -1.64524e-08
-2.21628e-06 2.64628e-07 6.36916e-07
5.25061e-08 -1.95866e-08 -2.72834e-09
-2.28588e-06 3.36934e-07 3.43716e-07
7.46865e-07 1.46623e-06 2.59584e-07
6.5446e-07 9.54244e-07 1.68456e-07
1.05653e-07 3.17156e-07 1.6363e-07
1.70791e-06 5.5172e-07 -2.71537e-07
4.47757e-07 2.04623e-07 1.34255e-07
4.59598e-07 2.86812e-07 1.3298e-07
1.44027e-07 3.42766e-07 1.56487e-07
-3.49443e-08 1.68398e-07 1.6136e-07
-1.58421e-08 1.77981e-07 1.56461e-07
4.24578e-08 1.2307e-08 -4.91932e-08
7.09421e-08 6.67414e-08 -5.39572e-08
2.33506e-07 1.28619e-07 -1.32911e-07
1.53215e-06 1.00847e-05 1.71938e-06
6.11349e-09 9.49107e-09 3.47164e-08
1.26334e-09 8.32506e-09 2.39966e-08
1.1507e-06 7.81121e-07 -1.86799e-07
7.78523e-07 1.19192e-06 1.06319e-08
1.95747e-06 1.2785e-06 -7.06473e-07
1.33115e-06 9.80284e-07 -5.5565e-07
1.14131e-06 1.12342e-06 4.25899e-07
3.76299e-07 3.1657e-07 -7.97662e-09
3.46951e-07 2.81019e-07 7.58879e-08
2.96853e-07 2.33334e-07 -2.24679e-07
-1.16682e-08 2.00061e-08 8.12026e-09
-7.78568e-09 2.50553e-08 -1.77861e-09
-8.24088e-09 2.45603e-08 -3.95646e-09
7.42304e-08 3.0156e-08 -7.91723e-08
1.34648e-08 5.72795e-08 -8.68668e-08
7.55009e-08 1.16451e-07 -1.85648e-07
-1.17326e-08 6.83013e-08 -7.49122e-08
1.37787e-07 2.14947e-07 1.64606e-08
2.68505e-06 5.94742e-06 -4.22946e-07
2.28358e-08 1.76861e-08 5.78292e-08
1.65853e-08 1.713e-08 5.88722e-08
8.01245e-07 1.03277e-07 2.19997e-07
3.81003e-06 1.28974e-06 -8.54937e-08
1.47327e-07 2.61633e-07 -1.05307e-07
1.9863e-07 1.52493e-07 -1.00436e-07
2.22566e-07 4.89368e-07 2.9501e-08
4.52204e-08 9.09141e-07 7.17943e-08
1.87484e-08 7.17851e-08 7.77213e-08
1.35894e-08 7.3192e-08 7.10339e-08
2.12032e-08 2.50562e-08 -4.45232e-08
1.85494e-08 5.15107e-09 -1.84283e-08
1.45164e-08 3.68713e-09 2.20152e-08
1.66835e-08 1.26445e-08 3.81753e-08
1.48009e-08 1.9111e-08 -3.66256e-08
9.43212e-06 4.55421e-06 1.28879e-06
2.59056e-05 2.23376e-05 -1.83981e-05
-4.73983e-09 1.95771e-07 2.44806e-07
-1.04708e-07 1.58307e-07 1.90943e-07
8.71448e-07 1.68389e-06 -2.89794e-07
7.93685e-07 1.96148e-06 -2.48087e-07
0.00023471 2.34946e-05 6.5704e-05
0.000211643 2.77393e-05 7.94657e-05
2.41075e-05 2.0572e-05 -1.72151e-05
9.2085e-06 7.18824e-06 3.62282e-06
-8.6862e-07 7.2565e-07 -1.79526e-07
-8.89584e-07 5.70057e-07 -1.59998e-07
5.93551e-06 4.51493e-06 1.80505e-06
2.97255e-05 2.34322e-05 2.25194e-05
2.64454e-05 1.81313e-05 1.69657e-05
8.68276e-10 -5.45102e-09 1.95013e-08
-2.12761e-08 1.60899e-08 -1.48883e-08
-1.31171e-07 5.91165e-08 5.4762e-08
2.61906e-05 1.76723e-05 1.48065e-05
-2.08421e-07 6.14602e-08 -5.28309e-08
-1.64426e-07 7.81004e-08 2.3876e-08
-4.65768e-07 2.83345e-07 -2.06668e-07
-2.87506e-07 1.59769e-07 -1.22509e-07
-2.04815e-07 7.84301e-08 -1.09757e-08
7.7906e-07 5.47144e-06 -2.5338e-07
9.63663e-09 5.62561e-09 -6.59687e-09
9.98597e-09 7.38513e-09 -1.10943e-08
-1.52781e-08 3.45256e-08 -3.11614e-09
6.27979e-09 2.47759e-08 1.6102e-08
-5.5559e-09 1.44344e-08 9.58019e-09
-1.58323e-08 2.92874e-08 1.13234e-08
-1.94817e-08 2.54249e-08 6.12534e-09
-3.2945e-08 5.84008e-08 -6.46148e-09
4.58522e-08 4.20491e-09 -5.19229e-08
2.88783e-07 3.38222e-07 4.36061e-08
2.92683e-07 1.63346e-07 -1.14687e-07
2.12183e-07 2.01677e-07 2.10489e-08
-2.36454e-08 9.982e-08 -1.45198e-08
9.78353e-07 5.13653e-07 -5.01088e-08
-3.79767e-06 3.28391e-06 2.05714e-06
-2.41848e-06 3.39942e-06 2.08483e-06
-1.06977e-06 8.09132e-08 3.45655e-07
-9.13777e-07 -4.97962e-08 5.85611e-07
1.60463e-06 8.11594e-07 -9.5649e-08
1.45818e-06 2.63896e-07 5.0837e-07
-1.3868e-08 8.62101e-09 5.08791e-08
-5.27049e-07 -2.74377e-08 -5.14631e-07
-9.36165e-07 6.52342e-08 -4.67145e-07
-4.32656e-09 2.29518e-10 2.02015e-09
-1.00615e-08 6.31707e-09 1.1844e-08
-1.05463e-08 -1.02388e-09 -4.49286e-09
1.87225e-07 5.41491e-07 1.3711e-07
1.35332e-07 5.27572e-07 1.14484e-07
-2.73516e-08 2.2003e-08 1.98481e-08
3.56546e-07 2.51274e-07 -2.79156e-07
-7.45062e-08 2.3059e-07 1.05643e-07
-1.64592e-06 2.16474e-06 3.51503e-07
-1.5643e-06 2.09459e-06 2.89411e-07
-1.54537e-07 2.08796e-07 1.04897e-07
-1.23294e-07 1.12473e-06 -7.20099e-08
-6.31659e-08 1.17685e-06 -1.05951e-07
3.17264e-07 6.15331e-07 -4.65893e-08
-2.63512e-08 2.66357e-08 3.20011e-08
1.5824e-06 2.97083e-06 -1.11351e-06
1.91682e-06 1.96767e-06 -4.06137e-07
-2.78671e-07 2.18104e-06 -1.07025e-06
-3.15236e-08 3.60883e-09 -1.25776e-08
4.2434e-05 3.29184e-05 4.65541e-05
3.11228e-05 3.15842e-05 4.18386e-05
6.40412e-09 -2.05758e-11 -1.51445e-08
8.79177e-10 7.91519e-08 3.34506e-08
4.94313e-05 3.01892e-05 -3.79759e-05
1.28221e-08 1.33367e-07 6.31434e-08
2.28154e-08 2.74325e-08 5.41728e-08
3.85902e-08 2.34412e-08 5.43593e-08
3.68306e-07 3.96275e-07 -3.4285e-07
2.47378e-08 2.37883e-08 4.26287e-08
2.43819e-06 6.99061e-06 -1.38643e-06
4.03454e-06 2.9513e-06 -1.95424e-07
1.15814e-08 6.58841e-08 8.43862e-08
-1.36922e-08 7.51501e-08 1.97866e-08
-2.36426e-08 1.30928e-08 2.69624e-08
-1.19867e-08 3.98973e-10 7.23088e-09
7.8095e-06 1.68819e-06 -7.33548e-07
9.95054e-06 2.50543e-06 -4.11362e-06
-2.36119e-06 1.80244e-06 1.28653e-07
-1.60019e-07 3.98431e-07 4.96718e-08
2.74772e-06 1.08003e-06 -2.53515e-07
-5.58944e-08 7.8366e-08 6.22968e-09
-2.25656e-08 9.13091e-08 -5.87938e-09
-1.73687e-06 9.7744e-08 7.08592e-07
-2.04681e-06 5.87147e-07 -6.87009e-07
-9.96222e-07 2.44606e-07 -8.63639e-08
-1.16919e-06 1.45067e-07 -3.85305e-07
-7.62259e-08 1.02851e-07 -6.6212e-08
-4.32778e-07 3.86567e-07 8.26146e-09
5.21352e-07 1.71768e-07 -2.79107e-07
5.20013e-07 1.91498e-07 -2.2487e-07
-4.53971e-07 3.96841e-07 1.34925e-08
6.42619e-07 4.95134e-06 7.78018e-08
1.83695e-06 4.12e-06 3.18074e-08
1.22216e-06 3.42972e-06 1.73892e-07
1.2669e-08 1.53594e-08 5.41943e-08
8.63918e-06 1.85423e-06 4.37721e-07
9.74403e-06 2.10643e-06 -1.69778e-06
-1.48257e-06 6.18051e-06 -1.07262e-06
1.21091e-08 -1.91683e-09 1.45551e-08
1.98146e-06 3.92735e-06 7.54984e-08
2.55216e-06 1.05089e-05 5.87681e-06
5.20976e-06 5.96674e-06 2.52491e-06
1.16665e-05 1.02438e-05 4.81592e-06
9.51346e-08 4.06209e-07 6.47038e-08
5.596e-08 5.39757e-07 4.43212e-08
-2.64053e-07 1.39489e-06 1.57234e-07
-2.69055e-08 7.43107e-07 8.51296e-08
7.11575e-07 3.09477e-07 1.60929e-07
3.26576e-07 5.31547e-07 9.78268e-08
1.99862e-06 6.7752e-07 -2.73661e-08
2.79927e-06 1.21742e-06 5.21149e-07
-3.42019e-08 5.81959e-10 2.56176e-08
-2.902e-08 -2.66242e-09 1.22848e-08
7.50406e-08 2.00821e-08 -8.46234e-08
5.86476e-08 9.57586e-09 -5.15824e-08
-2.08257e-08 6.61906e-08 9.95069e-08
1.28622e-08 5.44525e-08 1.06361e-07
-1.58627e-08 5.61435e-08 9.30806e-08
2.70813e-07 1.03039e-07 2.07892e-07
4.12374e-07 2.55709e-07 -8.02431e-08
5.91223e-07 2.79146e-07 1.45857e-07
2.3546e-08 7.84273e-08 -8.50935e-08
1.2737e-08 7.99261e-08 -8.12403e-08
-5.61118e-08 5.98231e-07 -3.44176e-07
2.24821e-08 3.41404e-07 -2.01096e-07
-2.04443e-07 2.8233e-06 -5.195e-07
-8.08466e-07 1.93412e-06 -3.57663e-07
-1.5355e-08 6.60282e-08 -5.82829e-08
2.1193e-07 -1.5315e-08 -3.90664e-08
-1.90781e-08 5.37399e-09 1.12291e-08
1.32744e-08 3.50762e-08 -5.353e-08
-1.70941e-06 3.69949e-06 -1.60933e-07
-8.12891e-08 3.72694e-07 -2.76776e-07
-1.4485e-07 3.21437e-07 -2.26612e-07
2.41428e-05 3.64352e-05 3.53147e-05
1.77407e-06 9.35734e-07 1.4172e-06
0.000105633 9.44716e-06 1.61768e-06
0.000121397 1.03212e-05 -1.6068e-05
9.05288e-05 1.07427e-05 -2.92316e-05
0.000113803 1.02371e-05 -1.07526e-05
1.88166e-06 9.04274e-07 1.47887e-06
2.31919e-05 2.80907e-05 2.62714e-05
2.23812e-05 2.77826e-05 2.38388e-05
4.61422e-08 3.07916e-08 -8.41419e-08
-2.54597e-08 5.94797e-09 -3.13926e-08
-1.32014e-08 4.89778e-09 -5.31429e-08
5.19307e-08 1.97629e-08 -7.00556e-08
2.322e-08 9.6184e-09 -3.49787e-08
1.44606e-07 2.57405e-07 9.23707e-08
1.02154e-07 3.89799e-07 2.38505e-07
-6.53349e-07 9.20813e-08 2.26633e-07
-2.40475e-05 9.30088e-06 -8.84186e-06
-2.32342e-05 1.15641e-05 -1.2486e-05
-9.10706e-07 7.67629e-07 -2.13351e-07
2.19992e-07 2.10572e-07 -1.71195e-07
3.53619e-07 3.9567e-07 1.04188e-07
1.91913e-07 5.41624e-07 -2.85479e-07
1.80297e-07 2.22825e-07 -1.49072e-07
1.1852e-07 4.53575e-09 7.09674e-08
9.69386e-08 5.21585e-08 1.25133e-07
6.02401e-08 3.11961e-08 8.01787e-08
1.26135e-06 1.66743e-06 -1.16524e-07
1.38991e-06 1.89357e-06 -1.18914e-07
-5.11125e-05 2.08404e-05 -3.0735e-05
-1.00393e-07 2.19583e-07 5.74578e-09
3.06844e-08 5.42217e-09 1.91083e-08
-2.86725e-08 6.35772e-08 1.14912e-07
6.69976e-07 2.02605e-06 -2.16416e-07
6.89472e-07 1.36025e-06 -1.71868e-07
-5.67739e-08 9.9064e-08 -1.21965e-09
1.23579e-07 1.95409e-07 3.02727e-09
-1.13447e-07 1.7519e-07 -1.20715e-08
-1.85975e-05 1.24673e-06 -8.1107e-07
4.89185e-09 1.11569e-07 -5.34237e-08
-1.51275e-09 9.47707e-08 -4.6578e-08
-8.3844e-06 -6.25545e-07 -2.39575e-06
8.15964e-07 7.80587e-07 -2.88886e-07
-1.42502e-05 3.88885e-06 3.66583e-06
-1.16316e-08 1.0595e-07 -5.37632e-11
1.78338e-06 6.4215e-07 1.72461e-07
1.95042e-06 5.18076e-07 4.99213e-07
2.68687e-09 7.03343e-08 -3.76992e-08
-1.03213e-08 8.16804e-08 2.31211e-08
1.16908e-07 2.11821e-07 -1.29705e-07
1.77962e-08 -9.88599e-09 -1.90014e-08
1.75973e-08 1.22315e-09 -3.83712e-08
4.53745e-07 4.86892e-07 -1.40424e-07
5.71168e-07 4.08312e-07 6.44552e-08
2.87077e-06 2.33783e-06 9.64607e-07
3.59921e-05 3.56046e-05 4.5602e-05
2.84119e-05 3.54091e-05 4.21606e-05
1.674e-08 8.37701e-10 -8.96198e-10
-1.43838e-08 4.38429e-10 -1.82279e-08
2.44751e-05 3.1985e-05 3.58657e-05
3.62423e-07 9.98685e-08 1.54387e-07
1.78033e-07 1.48864e-07 8.53832e-09
-2.32049e-08 5.72996e-08 -3.04228e-09
-9.66095e-08 1.78504e-07 1.60494e-07
-8.92188e-08 1.95608e-07 1.60893e-07
-5.83238e-07 3.24862e-06 2.66997e-07
-8.69149e-08 3.86833e-08 3.53161e-08
-2.76472e-08 1.18319e-07 9.17362e-08
-5.95506e-05 3.61444e-05 -5.68697e-05
-4.57963e-05 3.04639e-05 -4.42395e-05
-7.313e-07 3.271e-06 2.81332e-07
1.03534e-06 1.24635e-06 -2.62896e-07
-2.80008e-07 2.73862e-06 3.57927e-07
-2.69864e-09 -2.37144e-09 -2.57009e-08
8.39129e-08 7.29092e-07 -2.42258e-07
-8.4785e-07 3.66981e-05 -3.55568e-05
2.68804e-07 3.8099e-07 -5.21906e-08
9.70853e-07 6.66814e-07 6.99253e-07
6.26343e-08 1.09647e-07 -5.6267e-08
-3.39773e-08 4.86555e-08 2.89212e-08
9.01593e-09 2.38527e-09 -4.81572e-09
-3.83623e-09 3.48663e-09 -2.18086e-08
-1.47841e-05 2.12921e-05 -2.08671e-05
-3.14597e-08 6.42858e-08 9.78567e-08
1.3855e-06 5.15141e-07 -2.1157e-07
-5.2907e-09 -2.63079e-09 1.60056e-09
6.22677e-08 1.27478e-07 1.38153e-07
2.05174e-08 1.50704e-09 2.18948e-08
1.81877e-05 2.60682e-05 -1.8707e-05
2.70994e-07 8.52443e-08 -1.04895e-07
1.27073e-05 2.7494e-05 -2.25163e-05
0.000479234 1.2893e-05 -0.000108337
0.000476996 1.72426e-05 -0.000103892
1.33141e-08 9.73942e-08 9.2113e-08
5.42875e-05 7.06916e-05 -0.000185383
1.08347e-08 1.09907e-07 8.83494e-08
-5.42094e-08 7.07816e-08 1.35639e-08
-6.33635e-08 5.1455e-08 -6.07586e-09
4.03379e-08 1.51745e-07 1.2677e-07
1.11108e-06 1.14452e-06 -3.64271e-07
1.42128e-08 1.47178e-09 -1.11428e-08
3.526e-07 2.81569e-07 -1.06233e-07
3.29769e-05 3.97079e-05 -4.29401e-05
3.56121e-07 1.96753e-07 7.17586e-08
3.59438e-07 1.57134e-07 1.38009e-07
3.69244e-07 1.88664e-07 1.16231e-07
3.24833e-05 3.88755e-05 5.53153e-05
-9.368e-08 5.01586e-08 -1.95603e-08
-8.22509e-08 4.30958e-08 -4.91068e-08
-1.6273e-07 1.05031e-07 -1.5289e-08
-2.92421e-07 2.5683e-07 -7.20812e-08
3.78751e-05 4.35576e-05 6.03177e-05
7.65055e-06 2.74337e-06 -3.39997e-07
1.96326e-06 5.43659e-06 -2.92354e-06
1.96079e-06 4.79586e-06 -2.41174e-06
0.000305286 1.67442e-05 -6.26341e-05
0.000290112 1.84542e-05 -6.10125e-05