# vtk DataFile Version 2.0
S, Created by Mohamad Ibrahim Cheikh
ASCII
DATASET UNSTRUCTURED_GRID
POINTS 10490 double
-223.577 20.3387 -34.7914
-223.731 23.2843 -32.7647
-130.492 -29.3142 69.2814
-194.384 -37.8826 -41.0226
-207.474 29.5053 40.0419
-235.879 27.3964 13.4742
-191.275 -39.7121 -41.0815
14.4213 -3.15126 87.7987
-191.078 39.2156 -41.6668
-193.419 36.927 -42.4285
-251.147 3.2118 -3.38049
-251.007 5.46198 -0.714753
-204.327 29.2964 -42.1224
18.6232 -1.54708 87.7448
-201.23 30.3627 -43.1793
-151.356 68.7353 -14.6545
-148.571 69.9444 -12.2197
241.381 21.7604 -11.7087
240.378 24.3444 -8.78237
39.8016 72.8695 -47.3296
43.63 72.1682 -47.9864
45.4555 -3.21652 -86.491
49.314 -1.5233 -86.2783
-145.563 -45.4964 -55.4973
-142.059 -46.9211 -55.4227
-191.797 -27.3657 49.9136
-189.472 -30.0437 49.4587
-64.3394 -67.8373 51.3352
-66.4794 -66.0172 53.3353
-121.23 -41.6812 -64.8641
-205.496 44.6048 24.173
-208.436 41.8688 25.9221
-64.8766 -22.6145 81.959
-61.2397 -23.9417 81.9246
44.3295 4.161 86.5222
-201.399 -44.9177 27.5763
-53.0498 82.4389 -24.5615
-49.999 82.0709 -26.501
-109.541 -78.4117 -11.2482
-105.515 -79.2424 -10.0781
-195.502 42.6369 35.3085
-200.947 -43.0033 30.8385
-54.4302 -15.3472 84.5325
3.52912 8.24751 87.604
226.254 36.0724 -13.2453
223.494 37.2787 -15.4583
-147.006 22.4155 -67.7919
-143.843 23.6699 -68.195
-167.021 -43.0243 -49.7753
-163.503 -43.4793 -50.7996
-215.267 -7.15933 -44.9371
-215.167 -3.16354 -45.4516
-105.641 -17.6356 77.8887
-104.105 -21.1715 77.2585
-247.959 -12.5235 7.72451
-247.222 -12.2249 10.5722
-226.224 -18.847 33.513
-129.026 -40.834 -63.5484
238.447 4.0755 -27.6834
236.191 2.118 -30.1592
30.7008 -3.75497 -87.2611
26.727 -2.02822 -87.4782
-224.961 -22.5405 32.2499
-47.6603 -75.8722 41.3437
-235.553 -26.7707 15.3058
-110.34 51.1563 -60.3029
-237.919 -25.2894 13.1987
-16.838 -1.50504 -87.7897
-20.0208 -4.03941 -87.6277
25.3094 7.47886 -87.2333
27.3918 3.67262 -87.3994
25.4674 1.68659 -87.5314
45.9802 -6.3387 -86.2843
-242.159 -16.9752 16.6256
249.587 -5.36907 -9.40943
249.11 -2.30254 -11.8807
-169.143 48.1641 43.8357
30.4507 -13.4922 -86.3043
-165.518 47.9337 45.7409
-244.371 -14.4432 14.9727
243.986 6.92792 20.1942
244.544 3.56434 20.2422
-218.53 -34.2528 26.9078
-142.146 -69.4109 21.2689
-139.63 -70.7398 18.7862
-221.096 -32.0564 27.0478
-157.971 -59.8001 33.3575
-205.039 32.4608 39.2833
-154.319 -61.3638 32.6017
21.3257 7.34226 87.3751
-119.083 18.4997 75.2703
-116.412 20.5822 75.241
25.5781 -59.0335 64.6448
29.1131 -57.6629 65.6904
-134.576 55.0293 -49.9848
-136.874 52.5439 -51.8601
-177.095 57.9164 23.4513
-176.703 59.3885 19.8557
-70.0807 65.1588 -53.8241
-62.7668 16.9253 -83.5177
-66.3814 16.9205 -83.1758
-66.5413 66.6888 -52.4834
124.467 57.7444 50.1288
121.034 58.3505 50.455
-132.441 -69.8471 26.7933
-132.815 -68.0012 30.9871
-188.87 35.1166 46.2978
-185.123 37.2863 46.4539
-232.727 13.1735 -30.6499
-60.0733 75.0907 40.7868
-61.3906 76.6061 37.6044
-231.927 16.7978 -29.6018
-175.271 -46.9571 -42.1659
-178.792 -11.2323 60.8618
-181.8 -8.37645 60.2277
-195.824 53.751 12.6481
-198.379 52.0641 14.6695
-195.137 -6.40459 -55.1456
-196.111 -2.36514 -55.0436
-155.758 25.0373 64.3965
-159.47 22.4801 64.2273
-196.21 -54.5515 -7.39856
-193.182 -56.048 -5.79662
-91.289 75.1879 -32.7183
-87.3131 75.5636 -33.1781
-39.2312 -78.9678 -36.3272
-42.7323 -77.6549 -38.6025
-35.7181 20.5011 -84.6611
-119.25 -59.0786 -50.1266
-116.055 -58.3911 -51.8216
-103.566 -58.9124 54.4074
-107.461 -57.2216 55.2801
-176.092 46.903 -41.8058
26.905 13.9629 -86.3737
23.8021 15.7654 -86.1748
-175.607 44.5875 -44.5023
-89.4462 -39.5942 72.0887
-93.3161 -38.4585 72.1029
-1.70679 -75.013 -46.0075
2.63224 -75.2492 -45.6149
-158.023 -33.198 -59.872
-154.736 -36.6331 -58.9119
25.9702 72.7915 48.6089
28.4182 70.7736 51.3441
-166.597 38.8048 53.2934
-169.006 36.4299 54.036
126.647 60.263 46.3535
125.006 62.2378 44.2414
55.9244 20.2541 83.3718
-158.156 12.6396 67.2448
-155.547 9.85523 68.4448
-44.2031 73.2662 -46.2259
70.976 53.062 -65.6633
-41.5361 74.9436 -43.7748
222.064 -27.8283 -30.5324
225.276 -26.0124 -29.2251
-17.7195 79.3216 -37.5983
-20.4462 78.0478 -40.0169
247.477 -7.06406 13.9944
245.671 -9.0724 16.5073
-182.894 19.8517 57.0488
-181.353 22.6944 56.5895
-55.7718 68.4781 51.71
-53.5083 70.3427 49.4507
-221.674 26.3867 -32.1183
245.289 -12.7014 14.7129
-123.338 -44.6611 -62.3454
-128.466 -46.9012 -59.3611
-126.784 -44.247 -61.7918
-219.064 -11.0541 41.7913
-206.372 49.8773 -6.48192
-208.057 48.5147 -9.51792
-173.563 -35.1399 53.1138
-196.134 -34.8662 -42.6455
-56.8479 10.6171 85.0625
-99.6842 80.6463 4.85719
-149.824 -21.4696 67.341
-153.215 -21.716 66.3204
-105.792 79.8005 2.37196
-103.454 80.0232 5.47217
-208.26 -1.82591 -49.301
-211.702 -0.427516 -47.5052
7.13292 76.4155 -43.5711
8.83016 74.6858 -46.438
-18.7722 85.928 -17.8108
-22.1375 85.1637 -20.764
12.5962 74.2072 -47.0942
-209.32 34.9064 -34.0774
-209.433 37.4792 -31.1324
-243.67 12.2894 -17.9907
-206 40.0878 -30.684
-237.952 16.7283 23.0653
-240.124 13.5345 22.3944
-198.673 34.6959 41.325
-44.0935 -51.8619 -69.3996
-47.9384 -52.1807 -68.8463
-64.9727 78.2903 -33.133
-61.8798 79.2845 -31.4511
-198.908 37.6912 38.4638
-195.383 39.9829 38.3623
193.194 51.8476 -22.051
191.208 51.6121 -24.5777
-17.4574 72.3919 -49.6598
-16.0361 70.6851 -52.1165
-160.719 -8.67976 67.1284
-158.265 -5.14623 68.1974
-159.18 -12.1857 67.0322
-155.588 -13.9517 67.717
-181.218 -39.3688 -46.6208
-187.069 -34.8947 -47.3491
234.201 -8.1982 31.0077
231.367 -8.83968 33.3482
-185.724 -37.8058 -45.7347
-220.423 -36.3319 -21.8073
-223.2 -33.1948 -23.2994
-74.4627 69.5269 47.2352
-199.255 43.3664 -31.6632
-202.419 40.5121 -32.9602
-79.1721 71.9018 42.5054
-75.3545 71.7001 43.6794
-199.863 -47.1006 -25.2001
-196.405 -49.1628 -24.5819
-156.238 -38.5651 57.1678
-155.217 -34.6065 59.9731
-162.92 56.2519 -36.47
-159.775 58.0811 -35.2871
245.94 -16.0778 8.9523
246.756 -13.0534 10.9095
-202.193 25.1221 -45.9093
246.469 -16.6406 5.45931
-222.674 -40.7296 -3.81018
-219.563 -42.6765 -4.53639
-225.914 36.4524 -12.9115
-224.089 36.211 -16.8757
-228.9 -34.8682 10.6497
-231.376 -33.5774 7.89115
-225.472 -37.7616 9.69479
119.587 74.8242 19.8607
-172.164 -51.1021 -38.7774
115.393 75.6388 19.8127
47.9088 12.1562 -85.529
51.4967 10.7637 -85.4603
-180.222 -22.1776 57.2331
-179.957 52.3182 -32.2793
-165.455 0.8462 66.27
-168.578 2.82307 65.2436
-181.021 -17.4199 58.5549
36.4525 -59.7558 63.3289
37.7866 -57.2091 65.5462
-159.985 -59.9394 -31.9004
-182.768 -21.7985 -56.384
-184.314 -18.0313 -57.094
-11.9464 14.9993 -86.6115
-188.59 -54.9979 19.1012
-192.466 -53.1212 19.67
-145.946 9.33049 -71.0574
-143.743 12.131 -71.1841
-174.38 52.4127 35.6929
-173.439 50.7119 38.5937
-187.186 39.71 -43.328
-231.5 33.4941 -7.79792
-229.094 35.9685 -4.95996
-234.905 30.8698 -5.93957
241.404 7.72078 23.4444
239.892 10.8367 24.102
240.609 13.4017 21.8298
-138.879 -61.8303 -39.4923
-138.123 -60.163 -42.2928
-141.496 -58.2511 -43.5846
-200.351 -41.1649 -33.6905
-218.717 20.1142 -38.506
-52.7007 9.00455 85.5739
-56.6798 -81.1831 27.5678
-60.1942 -81.4609 25.7783
-152.612 56.1694 41.6837
-153.407 58.0476 38.6425
-189.414 -9.89964 -57.0393
-186.067 -8.88063 -58.5362
64.9108 -8.7122 84.571
67.8935 -7.08055 84.4365
-196.835 -37.22 40.1899
-200.415 -34.6103 40.3556
-180.668 -48.2457 -37.6842
-174.532 -52.0916 -36.0702
-215.619 -38.5089 23.8559
-218.655 -36.415 23.7601
-178.254 -50.9819 -35.4214
-121.621 47.9133 -60.3106
-71.4477 59.477 59.8457
26.8711 -68.3019 54.685
24.8091 -66.5888 56.8734
-87.1997 -8.60103 -82.0919
-84.0191 -6.29612 -82.7049
-33.1916 85.7551 -15.9746
-36.7428 85.2532 -17.6237
-75.2428 59.9955 58.7487
-117.685 48.9333 -60.4475
67.0968 -10.9716 -84.0978
63.3477 -11.5769 -84.3722
-122.362 44.707 -62.5475
-76.315 63.9845 -54.1936
-79.8179 64.1898 -53.3261
-210.937 -46.4386 -11.8321
-207.911 -47.2775 -14.716
-70.3829 -66.9058 51.5861
-82.566 61.6913 -55.7096
181.006 57.5724 -20.4504
187.794 54.7422 -20.727
-57.9841 -57.7704 -63.2057
-60.2469 -59.9502 -60.8735
185.031 56.5055 -18.9617
-52.2214 4.89579 85.9427
170.803 -60.94 -21.4145
166.657 -61.8364 -22.7991
-242.16 -11.2309 20.9366
-241.443 -7.71457 23.397
231.623 25.8609 -22.5154
229.371 25.1801 -25.8604
225.985 27.6874 -26.9258
-235.384 -18.9698 -24.5115
-234.85 -16.6287 -26.7376
-226.069 27.1612 -27.3718
-222.952 28.4607 -29.1247
-220.769 31.3752 -28.1508
-250.634 -7.29547 -0.178383
-176.053 45.304 43.5528
58.6896 51.244 -68.5299
59.7638 48.4147 -70.4466
128.113 68.3802 32.5375
131.605 68.305 30.9507
-176.943 47.6109 40.5468
-181.044 46.7529 39.3097
18.705 -86.418 15.2674
142.037 69.3645 -21.5083
141.101 68.3959 -25.0694
23.2385 -86.1703 15.8921
181.098 -44.0245 42.3149
25.6369 -86.6619 12.3796
-189.027 21.6407 -53.8618
-189.447 17.8947 -55.0429
-212.326 -45.0147 14.0793
-120.851 -47.005 -61.2082
-24.3202 -37.2747 79.2602
52.3265 18.5225 -84.0577
55.8399 16.7359 -84.1556
-25.2898 -41.1236 77.2952
-119.136 -6.54194 -77.2236
-115.757 -7.75819 -77.7386
-200.051 16.4694 50.7251
-215.148 -43.2644 14.3199
-153.439 33.0259 61.4074
-156.865 31.3485 61.2264
-157.695 28.1975 62.4848
-79.9674 -83.4309 0.603026
-63.4105 72.7377 -44.2825
-62.6489 70.6972 -47.596
-79.8046 -83.3553 -4.02097
-209.642 -18.6821 44.8798
-60.1926 71.3275 47.0404
-205.671 -19.6751 46.6691
-191.283 -46.3887 33.3533
-190.154 -45.0079 35.9359
-195.134 47.3221 29.031
-192.217 -42.6383 37.4502
-97.7008 19.7758 78.6401
-94.1175 20.9779 78.8633
-195.846 -41.8728 35.9829
-247.679 -8.81251 12.4832
188.065 -42.0218 40.5955
184.93 -44.2656 39.9694
-127.221 75.4974 7.91124
-123.601 76.0244 9.68964
48.8812 1.6816 86.3055
130.447 15.591 -73.6043
-179.723 46.5179 -40.3182
198.596 13.1799 52.3604
200.49 9.43327 52.2853
113.359 74.8971 23.6889
109.619 75.3466 24.4076
149.566 63.742 -30.695
145.738 65.3537 -29.5387
-166.874 -45.6705 -47.4224
129.846 19.3548 -72.837
-209.806 43.7065 -21.0838
-206.946 46.1296 -19.3077
126.471 20.207 -73.3309
-61.8947 -0.351768 85.2927
-59.1911 2.57528 85.4893
-53.8525 -2.00412 85.9356
[...]
POINT_DATA 10490
VECTORS F double
1.28511e-08 3.10324e-08 8.02931e-09
1.33653e-07 9.35367e-08 -4.52631e-08
1.28144e-07 6.86294e-07 3.19933e-07
5.90561e-08 -6.92188e-09 -2.78689e-08
2.90204e-07 2.68615e-07 -1.38367e-08
1.87761e-07 2.02239e-07 -8.77905e-09
8.65181e-08 2.77364e-08 -7.61301e-08
-1.80223e-06 2.05398e-06 1.09961e-07
1.00822e-06 7.75965e-07 1.64253e-07
1.11516e-06 6.63799e-07 -4.467e-08
1.28452e-08 7.67672e-08 -4.3888e-08
1.13218e-08 6.07748e-08 -2.23106e-08
9.75549e-08 3.76104e-07 2.03645e-07
-2.24022e-06 3.60356e-06 1.21747e-07
1.42273e-07 1.12751e-07 -1.89324e-09
3.38834e-06 5.867e-07 -1.53271e-06
4.42281e-06 7.23571e-07 -2.44197e-06
-1.17345e-08 2.21487e-08 1.15416e-08
-1.37348e-08 2.14573e-08 1.34493e-08
-3.00049e-05 5.64468e-06 5.60136e-06
-2.9076e-05 4.86265e-06 4.07639e-06
-3.33538e-06 1.88128e-06 -2.84574e-07
-3.03242e-06 1.35348e-06 -2.36099e-07
3.13691e-08 2.27469e-07 -1.96551e-07
5.82375e-08 2.54265e-07 -2.33538e-07
1.26263e-08 1.66223e-07 9.70733e-08
-2.71205e-09 1.41907e-07 8.493e-08
-4.31278e-08 1.78418e-07 2.29153e-07
-1.8075e-07 1.36819e-07 1.41767e-07
2.57258e-07 2.18043e-07 -1.9898e-07
5.91041e-07 2.71034e-07 1.1503e-07
3.86512e-07 2.98702e-07 -1.01955e-07
9.01508e-08 2.89106e-06 8.06449e-07
-3.51798e-07 1.44262e-06 3.89395e-07
-1.90511e-06 2.86348e-06 -1.82093e-08
1.30413e-08 2.86715e-08 5.83622e-08
0.000113522 2.48496e-05 5.33852e-05
0.000124942 2.9349e-05 6.20297e-05
3.94643e-08 8.05056e-10 -5.26635e-08
3.37405e-08 -2.4578e-09 -2.39214e-08
6.5716e-07 3.66087e-07 3.41522e-09
2.52854e-08 2.93144e-08 6.10496e-08
3.41648e-07 2.67585e-06 5.12744e-07
-1.41385e-06 3.37179e-06 -3.10467e-07
-2.31638e-08 1.37245e-08 -1.10676e-08
-3.92637e-08 3.53915e-08 1.58462e-08
1.33789e-06 9.09372e-07 -5.45135e-08
1.09931e-06 1.91492e-06 3.80762e-07
-5.46137e-08 1.07572e-07 -7.05456e-08
-4.77328e-08 1.21162e-07 -8.48931e-08
5.54266e-08 1.54017e-07 -5.70448e-08
7.34473e-08 1.63295e-07 -5.39348e-08
9.4889e-07 2.36343e-06 6.92697e-07
9.85818e-07 2.27706e-06 7.86626e-07
-4.17472e-08 1.01234e-07 5.92811e-11
-2.94349e-08 7.62176e-08 3.8622e-09
5.77378e-08 9.86645e-08 1.03205e-07
1.80735e-07 3.47864e-08 -6.72793e-08
-1.93339e-08 1.28447e-08 -1.84984e-08
-1.82653e-08 7.80374e-09 -1.69661e-08
-2.61338e-06 3.0824e-06 -2.4521e-07
-2.36955e-06 4.04609e-06 -1.82447e-07
1.12973e-08 8.83825e-08 7.1422e-08
-3.74151e-08 5.1363e-08 8.89781e-08
-1.19848e-08 1.28379e-08 -1.29136e-10
1.58138e-05 6.60152e-06 2.05761e-06
-2.1943e-08 3.77137e-08 2.38314e-08
-5.83154e-07 5.10768e-06 -7.38729e-08
1.51072e-07 3.87053e-06 -1.82649e-07
-5.40345e-07 7.4826e-06 6.22318e-07
-3.63526e-06 5.66017e-06 9.83582e-08
-2.33561e-06 4.20651e-06 -2.14654e-09
-1.23854e-06 2.1788e-06 -2.40867e-07
4.91837e-09 4.6055e-08 5.57932e-08
2.64181e-09 1.33817e-08 9.41519e-10
-3.59393e-09 4.71553e-09 -1.01444e-08
2.78856e-07 4.09946e-07 -3.1869e-07
1.01202e-06 1.57805e-06 -2.02984e-07
4.28411e-07 5.83889e-07 -4.22082e-07
4.05004e-10 2.98855e-08 2.96364e-08
-9.78133e-09 1.09605e-08 1.07101e-08
-2.72139e-09 1.1283e-08 2.04063e-09
1.84814e-08 1.62078e-08 3.90096e-08
2.48505e-08 5.64385e-09 3.87509e-08
1.26097e-08 3.05888e-09 2.29942e-08
1.50454e-08 1.87956e-08 3.73342e-08
3.63444e-08 3.25368e-08 7.94014e-08
2.33097e-07 3.13829e-07 -1.10369e-07
3.76325e-08 2.76682e-08 7.38869e-08
1.35813e-07 4.52985e-06 -3.84711e-07
2.16363e-06 2.864e-06 -2.84827e-07
1.96653e-06 3.36482e-06 -5.4794e-07
-2.45814e-08 1.73862e-07 1.59961e-07
-6.31463e-08 2.56758e-07 2.28808e-07
5.5032e-06 3.63504e-06 2.18791e-06
7.30179e-06 2.84838e-06 5.26508e-07
4.07699e-07 3.55007e-07 -4.99797e-07
1.37008e-06 6.25433e-07 -3.77887e-07
3.43991e-05 2.33467e-05 2.27796e-05
2.50069e-06 1.14531e-06 2.01208e-09
2.23873e-06 -1.46113e-07 -2.48471e-07
3.36397e-05 2.58582e-05 2.76353e-05
-9.79911e-07 3.69649e-07 -1.27924e-07
-1.04123e-06 3.84866e-07 -1.39287e-07
2.70115e-09 1.22604e-08 3.35942e-08
-1.60725e-09 1.71402e-08 3.67697e-08
1.04792e-06 5.66734e-07 9.35205e-08
1.01933e-06 7.29105e-07 -8.78902e-08
6.36265e-08 8.76563e-08 -2.14739e-08
5.33929e-05 2.89355e-05 -4.36437e-05
5.29128e-05 2.83241e-05 -4.71246e-05
3.63959e-08 9.0369e-08 1.63678e-08
4.52772e-08 -2.26136e-08 2.14157e-09
4.37523e-07 3.79193e-07 2.27342e-07
2.1533e-07 1.40862e-07 9.91689e-08
7.09821e-07 3.87059e-07 -2.99405e-07
8.55954e-07 4.08453e-07 -3.24899e-08
-7.48639e-09 1.23041e-07 -1.10471e-08
1.32372e-07 1.70785e-07 -6.50789e-08
3.58824e-07 2.55845e-06 -8.88464e-07
1.32076e-06 9.54279e-07 6.74831e-08
7.57297e-09 -1.59766e-09 -1.28101e-08
-1.76072e-09 -3.48661e-10 1.05561e-08
2.97351e-05 8.80855e-06 1.00847e-05
3.1205e-05 1.01133e-05 1.29789e-05
-4.44352e-08 5.09551e-08 -1.0489e-07
-3.06535e-08 6.55205e-08 -1.2765e-07
2.24369e-06 1.2201e-05 2.83864e-06
1.28946e-07 1.61252e-07 -2.27607e-07
1.25363e-07 1.87997e-07 -2.46202e-07
3.51544e-08 1.39751e-07 1.59516e-07
8.05175e-08 2.27263e-07 2.54407e-07
2.72402e-06 8.09341e-07 -4.9675e-07
-8.29977e-08 6.96953e-06 1.1235e-06
-2.37386e-06 3.53677e-06 5.66762e-07
6.83029e-07 2.41887e-08 -3.05749e-07
2.17523e-07 5.45598e-07 3.3271e-07
2.80227e-07 8.68096e-07 5.07429e-07
-6.34585e-08 8.27962e-08 -1.34708e-07
-6.24137e-08 5.95797e-08 -9.87272e-08
1.26735e-07 2.45686e-07 -1.77182e-07
2.58396e-08 1.55526e-07 -1.0502e-07
-4.9634e-05 1.98382e-05 -2.64608e-05
-4.4086e-05 2.16757e-05 -2.68907e-05
2.788e-06 1.26012e-06 1.4949e-07
2.40666e-06 1.4623e-06 -6.42914e-08
-5.03416e-07 1.66684e-07 -4.83043e-08
-1.41597e-06 2.81261e-08 4.50265e-07
-6.93215e-07 4.70044e-07 -5.72636e-08
9.37375e-07 1.06562e-06 6.96157e-08
2.05418e-07 2.73776e-07 1.77334e-08
4.59709e-05 4.77906e-05 7.03638e-05
-5.92765e-06 2.84583e-06 1.51524e-06
4.71353e-05 4.74856e-05 7.58204e-05
-2.41727e-09 8.21644e-09 -9.64195e-09
-1.56745e-09 6.46811e-09 -7.23532e-09
5.06318e-05 6.11782e-05 0.000126146
4.86475e-05 6.2062e-05 0.000118001
-5.89753e-10 -3.9416e-10 1.07872e-09
-1.10419e-09 8.10081e-10 2.46011e-09
3.6979e-07 5.61268e-07 -5.01647e-08
2.97521e-07 6.24373e-07 -1.33661e-07
4.06013e-05 3.34157e-05 -3.889e-05
3.79371e-05 3.47675e-05 -4.44303e-05
2.10734e-07 8.04862e-08 -1.11946e-07
-3.92644e-09 -1.57799e-09 6.65004e-09
2.49123e-07 1.98878e-07 -2.02805e-07
7.36217e-09 1.33832e-07 -1.07691e-07
2.31325e-07 3.68064e-08 -8.4465e-08
-2.8976e-09 1.35547e-07 3.39932e-08
5.95471e-07 3.17209e-07 1.19742e-07
6.35822e-07 3.42861e-07 4.59887e-08
9.04423e-08 1.36567e-07 1.26536e-07
9.35231e-08 5.16397e-09 -5.68833e-08
1.64424e-06 3.90823e-06 -3.53278e-07
4.01807e-05 6.12509e-06 -7.36882e-07
-4.66365e-08 2.65528e-07 7.19517e-08
-7.94925e-08 3.67786e-07 9.7944e-08
3.4585e-05 5.8939e-06 -9.43459e-06
3.71572e-05 6.5568e-06 -9.87921e-06
4.96184e-08 9.68343e-08 -2.92481e-08
7.01974e-08 1.97167e-07 -4.00739e-08
-5.13344e-05 2.78252e-05 4.77708e-05
-4.79795e-05 2.85757e-05 4.48407e-05
0.000336647 2.52496e-05 7.83706e-05
0.000273984 3.69341e-05 0.000115719
-4.81229e-05 2.11256e-05 3.1712e-05
3.10632e-07 2.33623e-07 5.70074e-09
9.29511e-07 5.04148e-07 -1.58633e-07
1.10266e-07 1.8819e-07 -5.4293e-08
8.32816e-07 6.4195e-07 1.54155e-07
7.00243e-08 2.11925e-07 -6.52554e-08
8.33083e-08 1.7845e-07 1.51413e-09
4.23397e-07 -2.00431e-07 4.17489e-07
4.42893e-07 3.19063e-07 -2.72886e-07
4.07806e-07 4.07238e-07 -3.43423e-07
7.11454e-05 2.6595e-05 4.57606e-05
7.51366e-05 2.55468e-05 4.6301e-05
7.14325e-07 -5.09004e-08 5.02137e-07
5.1847e-07 3.04125e-07 6.31973e-09
-7.73065e-08 3.6741e-08 3.46372e-09
-1.09021e-07 5.96213e-08 2.13612e-08
1.96843e-06 5.04122e-05 7.34037e-05
-1.03603e-05 4.6941e-05 6.40556e-05
7.21162e-07 4.19599e-07 2.65643e-07
8.83869e-07 3.49744e-07 2.7752e-07
1.76782e-07 1.55256e-07 7.96199e-08
2.93122e-07 3.69666e-07 1.58617e-07
1.04642e-07 1.02613e-07 -1.36449e-07
1.19103e-07 8.02902e-08 -1.16781e-07
1.76578e-09 1.02436e-08 1.07663e-09
1.37704e-09 9.97705e-09 1.47402e-09
9.03395e-08 6.60993e-08 -9.95538e-08
3.48608e-09 3.55874e-09 -1.02437e-08
-1.38555e-09 5.79493e-09 -6.63227e-09
4.00252e-05 1.63722e-05 -1.63737e-05
8.28765e-07 6.74547e-07 2.85347e-07
8.70189e-07 6.33189e-07 1.23982e-07
3.3545e-05 1.11118e-05 -1.11469e-05
3.78484e-05 1.60399e-05 -1.83354e-05
4.1311e-09 1.47683e-08 -3.16129e-08
1.66572e-10 8.0561e-09 -1.62756e-08
6.17026e-08 2.58938e-07 1.95325e-07
1.90923e-07 2.40567e-07 1.99312e-07
1.56717e-06 1.1571e-06 9.276e-07
1.94578e-06 1.06429e-06 6.7313e-07
2.09773e-09 7.23306e-09 5.93759e-09
7.91542e-10 7.72645e-09 7.05509e-09
3.43284e-07 2.40595e-07 -5.34455e-08
7.14803e-10 3.16775e-09 5.71347e-09
-2.88097e-08 2.03254e-08 -1.11348e-08
-2.19333e-08 1.02677e-08 3.33773e-08
3.26359e-07 2.4824e-07 1.71587e-09
4.24032e-07 3.28844e-07 1.6249e-08
1.18166e-08 -1.52455e-09 2.61043e-08
-2.92317e-09 1.19171e-08 4.02146e-08
1.34579e-09 -5.25507e-09 -1.66353e-08
-2.1744e-06 2.5657e-07 6.36359e-07
5.26148e-08 -1.97845e-08 -2.52695e-09
-2.24171e-06 3.26657e-07 3.51438e-07
7.29139e-07 1.45623e-06 2.56976e-07
6.38879e-07 9.49223e-07 1.66687e-07
1.05727e-07 3.16825e-07 1.63529e-07
1.69671e-06 5.49121e-07 -2.6808e-07
4.48152e-07 2.04506e-07 1.34374e-07
4.59922e-07 2.86569e-07 1.33092e-07
1.44203e-07 3.42411e-07 1.56446e-07
-3.50202e-08 1.69251e-07 1.62169e-07
-1.59118e-08 1.78929e-07 1.57293e-07
4.25317e-08 1.22778e-08 -4.91841e-08
7.09392e-08 6.64657e-08 -5.38481e-08
2.33142e-07 1.28173e-07 -1.32626e-07
1.45468e-06 9.97516e-06 1.70292e-06
6.13507e-09 9.51098e-09 3.48026e-08
1.27188e-09 8.32721e-09 2.40119e-08
1.14654e-06 7.78792e-07 -1.86051e-07
7.8069e-07 1.1841e-06 8.78435e-09
1.94263e-06 1.2669e-06 -6.98388e-07
1.32607e-06 9.72872e-07 -5.48741e-07
1.13604e-06 1.1168e-06 4.22658e-07
3.7495e-07 3.15475e-07 -7.76576e-09
3.45633e-07 2.79986e-07 7.58617e-08
2.9576e-07 2.32446e-07 -2.23994e-07
-1.15861e-08 1.9812e-08 8.08231e-09
-7.74918e-09 2.48104e-08 -1.71051e-09
-8.1954e-09 2.43204e-08 -3.87058e-09
7.42612e-08 3.00803e-08 -7.9066e-08
1.33102e-08 5.72469e-08 -8.67576e-08
7.54166e-08 1.16438e-07 -1.85595e-07
-1.17794e-08 6.8353e-08 -7.49406e-08
1.37196e-07 2.14077e-07 1.64185e-08
2.72872e-06 5.94938e-06 -4.20288e-07
2.28974e-08 1.76955e-08 5.7874e-08
1.66491e-08 1.71361e-08 5.89095e-08
8.20833e-07 1.10695e-07 2.18774e-07
3.77817e-06 1.27702e-06 -8.19638e-08
1.46904e-07 2.60915e-07 -1.05009e-07
1.98115e-07 1.51826e-07 -1.00134e-07
2.20138e-07 4.94963e-07 3.03025e-08
4.27584e-08 9.15521e-07 7.25616e-08
1.87143e-08 7.18634e-08 7.77742e-08
1.35371e-08 7.32296e-08 7.10347e-08
2.12541e-08 2.49212e-08 -4.43807e-08
1.86065e-08 5.0154e-09 -1.82664e-08
1.4596e-08 3.61062e-09 2.19812e-08
1.6793e-08 1.26018e-08 3.82348e-08
1.48745e-08 1.89988e-08 -3.65097e-08
9.30179e-06 4.52284e-06 1.2966e-06
2.6039e-05 2.21062e-05 -1.81639e-05
-4.72312e-09 1.96441e-07 2.4564e-07
-1.05001e-07 1.58877e-07 1.91625e-07
8.6703e-07 1.68047e-06 -2.88825e-07
7.87475e-07 1.96037e-06 -2.47182e-07
0.000226894 2.22626e-05 6.17888e-05
0.000204778 2.62729e-05 7.48203e-05
2.41986e-05 2.02301e-05 -1.6865e-05
9.09925e-06 7.04723e-06 3.53595e-06
-8.62176e-07 7.17994e-07 -1.77889e-07
-8.83791e-07 5.66861e-07 -1.59021e-07
5.86926e-06 4.48366e-06 1.79901e-06
2.9407e-05 2.28876e-05 2.19526e-05
2.62265e-05 1.77809e-05 1.65971e-05
9.14329e-10 -5.54472e-09 1.97655e-08
-2.14001e-08 1.61378e-08 -1.48297e-08
-1.31402e-07 5.92171e-08 5.48528e-08
2.5721e-05 1.74345e-05 1.46393e-05
-2.0593e-07 6.09527e-08 -5.15586e-08
-1.62385e-07 7.72726e-08 2.3956e-08
-4.65472e-07 2.82837e-07 -2.06234e-07
-2.87577e-07 1.59537e-07 -1.22271e-07
-2.02268e-07 7.76243e-08 -1.0333e-08
7.98683e-07 5.46912e-06 -2.52141e-07
9.57953e-09 5.56247e-09 -6.47624e-09
9.93421e-09 7.3204e-09 -1.09655e-08
-1.52874e-08 3.43389e-08 -3.2294e-09
6.28262e-09 2.45294e-08 1.60247e-08
-5.45554e-09 1.42588e-08 9.50684e-09
-1.5588e-08 2.89095e-08 1.12201e-08
-1.9189e-08 2.5104e-08 6.09469e-09
-3.3036e-08 5.83428e-08 -6.3102e-09
4.59963e-08 3.92936e-09 -5.19068e-08
2.87799e-07 3.37096e-07 4.34871e-08
2.91627e-07 1.62595e-07 -1.14431e-07
2.11302e-07 2.0079e-07 2.0907e-08
-2.36625e-08 9.98837e-08 -1.45584e-08
9.76142e-07 5.09718e-07 -4.71187e-08
-3.783e-06 3.29212e-06 2.06506e-06
-2.42927e-06 3.40535e-06 2.08801e-06
-1.05872e-06 7.67904e-08 3.48988e-07
-9.0543e-07 -5.12661e-08 5.84496e-07
1.59685e-06 8.05319e-07 -9.2459e-08
1.45144e-06 2.62997e-07 5.05622e-07
-1.39624e-08 8.65657e-09 5.10963e-08
-5.22375e-07 -2.65667e-08 -5.0803e-07
-9.2682e-07 6.50495e-08 -4.61195e-07
-4.39572e-09 2.35188e-10 2.06268e-09
-1.01053e-08 6.30016e-09 1.18494e-08
-1.06219e-08 -1.02104e-09 -4.45354e-09
1.85779e-07 5.38739e-07 1.36632e-07
1.34871e-07 5.24892e-07 1.13812e-07
-2.7525e-08 2.21039e-08 1.98486e-08
3.56043e-07 2.50824e-07 -2.78687e-07
-7.32315e-08 2.32445e-07 1.06563e-07
-1.62771e-06 2.14756e-06 3.49169e-07
-1.54699e-06 2.075e-06 2.86979e-07
-1.54005e-07 2.1053e-07 1.05839e-07
-1.21356e-07 1.12055e-06 -7.20057e-08
-6.11013e-08 1.17331e-06 -1.05956e-07
3.16764e-07 6.13207e-07 -4.61487e-08
-2.65018e-08 2.67534e-08 3.20826e-08
1.58187e-06 2.94566e-06 -1.1003e-06
1.9087e-06 1.96002e-06 -4.0484e-07
-2.68938e-07 2.17246e-06 -1.06346e-06
-3.17169e-08 3.63157e-09 -1.25795e-08
4.2e-05 3.22309e-05 4.55785e-05
3.10358e-05 3.0971e-05 4.10014e-05
6.44394e-09 -2.48864e-11 -1.51322e-08
7.4891e-10 7.89391e-08 3.32878e-08
4.85285e-05 2.96984e-05 -3.74291e-05
1.26739e-08 1.33377e-07 6.30681e-08
2.2861e-08 2.74726e-08 5.4261e-08
3.86552e-08 2.34689e-08 5.44361e-08
3.67032e-07 3.94174e-07 -3.40485e-07
2.47531e-08 2.37979e-08 4.26493e-08
2.47246e-06 6.92843e-06 -1.36623e-06
4.0168e-06 3.04199e-06 -2.22279e-07
1.15804e-08 6.6019e-08 8.45414e-08
-1.36922e-08 7.51437e-08 1.97862e-08
-2.36568e-08 1.3063e-08 2.69399e-08
-1.2023e-08 3.89019e-10 7.24141e-09
7.7596e-06 1.67422e-06 -6.99933e-07
9.88751e-06 2.48605e-06 -4.06369e-06
-2.36856e-06 1.81955e-06 1.28785e-07
-1.58964e-07 3.93441e-07 4.88462e-08
2.7241e-06 1.07108e-06 -2.50896e-07
-5.59783e-08 7.80747e-08 6.34196e-09
-2.26848e-08 9.09991e-08 -5.76784e-09
-1.70984e-06 9.41553e-08 7.04083e-07
-2.00974e-06 5.70041e-07 -6.54618e-07
-9.85244e-07 2.42059e-07 -8.50962e-08
-1.15667e-06 1.43589e-07 -3.81002e-07
-7.64333e-08 1.02736e-07 -6.60119e-08
-4.28977e-07 3.81906e-07 7.85578e-09
5.18888e-07 1.70814e-07 -2.78076e-07
5.17443e-07 1.90464e-07 -2.23963e-07
-4.50103e-07 3.92554e-07 1.31315e-08
6.43436e-07 4.94836e-06 7.75721e-08
1.82983e-06 4.12586e-06 3.08226e-08
1.21711e-06 3.44759e-06 1.7378e-07
1.27514e-08 1.53928e-08 5.43939e-08
8.55854e-06 1.83708e-06 4.23847e-07
9.6427e-06 2.08276e-06 -1.64974e-06
-1.48558e-06 6.20332e-06 -1.07697e-06
1.22008e-08 -1.97283e-09 1.45709e-08
1.97897e-06 3.94752e-06 7.46944e-08
2.65604e-06 1.03266e-05 5.75295e-06
5.18597e-06 5.99177e-06 2.54372e-06
1.14672e-05 1.00592e-05 4.72939e-06
9.54514e-08 4.06094e-07 6.48019e-08
5.66846e-08 5.38792e-07 4.45109e-08
-2.66335e-07 1.40293e-06 1.58198e-07
-2.88024e-08 7.49628e-07 8.60418e-08
7.08161e-07 3.08051e-07 1.59817e-07
3.27228e-07 5.30551e-07 9.80542e-08
1.99258e-06 6.74624e-07 -2.91201e-08
2.78024e-06 1.205e-06 5.09351e-07
-3.42667e-08 5.90435e-10 2.56854e-08
-2.90854e-08 -2.65532e-09 1.23529e-08
7.52242e-08 2.0011e-08 -8.45615e-08
5.88389e-08 9.48647e-09 -5.14936e-08
-2.09762e-08 6.62958e-08 9.96385e-08
1.28762e-08 5.45377e-08 1.06525e-07
-1.59365e-08 5.62176e-08 9.31909e-08
2.69877e-07 1.02649e-07 2.07298e-07
4.10723e-07 2.54542e-07 -7.94403e-08
5.88504e-07 2.77838e-07 1.45279e-07
2.35062e-08 7.83701e-08 -8.50197e-08
1.2724e-08 7.99054e-08 -8.12137e-08
-5.56095e-08 5.96873e-07 -3.43453e-07
2.27154e-08 3.40917e-07 -2.0085e-07
-2.17594e-07 2.85087e-06 -5.2406e-07
-8.2308e-07 1.96184e-06 -3.62686e-07
-1.54052e-08 6.6021e-08 -5.824e-08
2.11547e-07 -1.51026e-08 -3.90423e-08
-1.91093e-08 5.34479e-09 1.12312e-08
1.33284e-08 3.50038e-08 -5.34853e-08
-1.69409e-06 3.71567e-06 -1.61548e-07
-8.16205e-08 3.71232e-07 -2.75675e-07
-1.44984e-07 3.20109e-07 -2.25656e-07
2.36255e-05 3.60871e-05 3.50515e-05
1.76464e-06 9.2957e-07 1.4045e-06
0.000103387 9.23814e-06 2.23611e-06
0.000118491 1.00428e-05 -1.47466e-05
8.92524e-05 1.04402e-05 -2.74624e-05
0.000111491 9.94972e-06 -9.66689e-06
1.87832e-06 8.99108e-07 1.4569e-06
2.27162e-05 2.79567e-05 2.62138e-05
2.19926e-05 2.76356e-05 2.37662e-05
4.63686e-08 3.07439e-08 -8.42702e-08
-2.55858e-08 5.96641e-09 -3.14065e-08
-1.32694e-08 4.91768e-09 -5.33233e-08
5.21524e-08 1.96548e-08 -7.00832e-08
2.33115e-08 9.50383e-09 -3.48744e-08
1.43861e-07 2.56304e-07 9.20608e-08
1.01767e-07 3.87729e-07 2.37144e-07
-6.48785e-07 9.06073e-08 2.26964e-07
-2.37759e-05 9.11075e-06 -8.64208e-06
-2.32416e-05 1.10001e-05 -1.177e-05
-9.07706e-07 7.648e-07 -2.12557e-07
2.19803e-07 2.10039e-07 -1.70873e-07
3.53241e-07 3.94425e-07 1.04175e-07
1.91769e-07 5.40253e-07 -2.84859e-07
1.80118e-07 2.222e-07 -1.48754e-07
1.18913e-07 4.47846e-09 7.10944e-08
9.72548e-08 5.22387e-08 1.2541e-07
6.04192e-08 3.12188e-08 8.03066e-08
1.25278e-06 1.6618e-06 -1.15648e-07
1.38137e-06 1.8864e-06 -1.18096e-07
-5.13208e-05 2.01931e-05 -2.96807e-05
-9.90273e-08 2.16343e-07 5.62436e-09
3.0799e-08 5.3511e-09 1.90138e-08
-2.8723e-08 6.36909e-08 1.15118e-07
6.65138e-07 2.01756e-06 -2.15248e-07
6.85227e-07 1.35978e-06 -1.71388e-07
-5.59793e-08 9.75721e-08 -1.22179e-09
1.23185e-07 1.94915e-07 3.16466e-09
-1.11858e-07 1.72586e-07 -1.19239e-08
-1.8328e-05 1.136e-06 -9.44367e-07
4.67829e-09 1.10039e-07 -5.27246e-08
-1.66359e-09 9.34829e-08 -4.59828e-08
-8.48174e-06 -6.53195e-07 -2.45566e-06
8.12403e-07 7.76169e-07 -2.86664e-07
-1.41231e-05 3.70736e-06 3.41411e-06
-1.16373e-08 1.05985e-07 2.04289e-11
1.77032e-06 6.38835e-07 1.69108e-07
1.93805e-06 5.14609e-07 4.96262e-07
2.68727e-09 7.02135e-08 -3.77089e-08
-1.03327e-08 8.16823e-08 2.31013e-08
1.16562e-07 2.11307e-07 -1.29522e-07
1.7987e-08 -1.0081e-08 -1.90012e-08
1.77707e-08 1.09631e-09 -3.84452e-08
4.52235e-07 4.84869e-07 -1.39569e-07
5.69276e-07 4.06571e-07 6.4574e-08
2.85574e-06 2.32009e-06 9.54702e-07
3.57137e-05 3.47863e-05 4.45422e-05
2.79846e-05 3.45826e-05 4.12018e-05
1.67072e-08 8.32062e-10 -7.30564e-10
-1.44936e-08 4.24195e-10 -1.80893e-08
2.45873e-05 3.15637e-05 3.53813e-05
3.61417e-07 9.93532e-08 1.54091e-07
1.77608e-07 1.48178e-07 8.73269e-09
-2.32447e-08 5.7287e-08 -3.11524e-09
-9.6725e-08 1.79207e-07 1.61118e-07
-8.91674e-08 1.96427e-07 1.61557e-07
-5.75855e-07 3.25911e-06 2.68379e-07
-8.75555e-08 3.89519e-08 3.55705e-08
-2.77953e-08 1.18441e-07 9.17839e-08
-5.88448e-05 3.57157e-05 -5.6302e-05
-4.52435e-05 3.02022e-05 -4.39279e-05
-7.24572e-07 3.27889e-06 2.8252e-07
1.03594e-06 1.24186e-06 -2.60824e-07
-2.76032e-07 2.74757e-06 3.59391e-07
-2.7461e-09 -2.66666e-09 -2.56809e-08
9.82416e-08 7.30632e-07 -2.39161e-07
-1.04394e-07 3.67638e-05 -3.56218e-05
2.7628e-07 3.89903e-07 -5.31043e-08
9.6561e-07 6.62527e-07 6.93517e-07
6.24555e-08 1.09287e-07 -5.61545e-08
-3.40326e-08 4.87413e-08 2.90248e-08
8.95523e-09 2.35402e-09 -4.6893e-09
-3.85754e-09 3.44684e-09 -2.16215e-08
-1.50729e-05 2.11244e-05 -2.07028e-05
-3.14927e-08 6.4397e-08 9.82103e-08
1.37637e-06 5.12225e-07 -2.08606e-07
-5.28501e-09 -2.62652e-09 1.61324e-09
6.23759e-08 1.27602e-07 1.38305e-07
2.0618e-08 1.40083e-09 2.18425e-08
1.78155e-05 2.60275e-05 -1.87208e-05
2.7029e-07 8.523e-08 -1.04732e-07
1.29856e-05 2.73307e-05 -2.23734e-05
0.000459974 1.17338e-05 -0.000101777
0.000455527 1.59285e-05 -9.83156e-05
1.32744e-08 9.74634e-08 9.21514e-08
6.59888e-05 6.9753e-05 -0.000183833
1.07988e-08 1.09967e-07 8.83762e-08
-5.33745e-08 6.9792e-08 1.34142e-08
-6.2401e-08 5.07221e-08 -5.95732e-09
4.03205e-08 1.51799e-07 1.26798e-07
1.10667e-06 1.13962e-06 -3.62765e-07
1.42577e-08 1.34824e-09 -1.09736e-08
3.5122e-07 2.8024e-07 -1.05418e-07
3.29727e-05 3.9105e-05 -4.22953e-05
3.5473e-07 1.95815e-07 7.17678e-08
3.5787e-07 1.56334e-07 1.37545e-07
3.67639e-07 1.87743e-07 1.15872e-07
3.25671e-05 3.78064e-05 5.37488e-05
-9.26301e-08 4.96349e-08 -1.90775e-08
-8.13088e-08 4.26244e-08 -4.83673e-08
-1.62923e-07 1.04282e-07 -1.46384e-08
-2.9237e-07 2.55791e-07 -7.1363e-08
3.79189e-05 4.25745e-05 5.89538e-05
7.63968e-06 2.81328e-06 -3.89772e-07
2.03609e-06 5.37228e-06 -2.86942e-06
2.0541e-06 4.7704e-06 -2.37882e-06
0.000294156 1.5442e-05 -5.60131e-05
0.000279126 1.71419e-05 -5.52517e-05