# vtk DataFile Version 2.0
S, Created by Mohamad Ibrahim Cheikh
ASCII
DATASET UNSTRUCTURED_GRID
POINTS 10490 double
-223.577 20.3388 -34.7914
-223.731 23.2844 -32.7647
-130.492 -29.3135 69.2817
-194.384 -37.8826 -41.0226
-207.474 29.5055 40.0419
-235.879 27.3966 13.4742
-191.275 -39.7121 -41.0816
14.4195 -3.1492 87.7988
-191.077 39.2164 -41.6666
-193.418 36.9277 -42.4285
-251.147 3.21188 -3.38053
-251.007 5.46204 -0.714775
-204.327 29.2967 -42.1222
18.621 -1.54347 87.7449
-201.23 30.3629 -43.1793
-151.352 68.7359 -14.656
-148.567 69.9451 -12.2222
241.381 21.7604 -11.7087
240.378 24.3445 -8.78235
39.7718 72.8752 -47.3238
43.6011 72.1731 -47.9822
45.4521 -3.21465 -86.4913
49.311 -1.52196 -86.2785
-145.563 -45.4962 -55.4975
-142.059 -46.9209 -55.4229
-191.797 -27.3655 49.9137
-189.472 -30.0436 49.4588
-64.3394 -67.8371 51.3354
-66.4795 -66.017 53.3354
-121.23 -41.6809 -64.8643
-205.496 44.6051 24.1732
-208.435 41.8691 25.922
-64.8765 -22.6116 81.9598
-61.24 -23.9402 81.925
44.3276 4.16387 86.5222
-201.399 -44.9177 27.5764
-52.9374 82.4633 -24.5092
-49.8753 82.0998 -26.44
-109.541 -78.4117 -11.2482
-105.515 -79.2424 -10.0782
-195.501 42.6373 35.3085
-200.947 -43.0033 30.8386
-54.4298 -15.3445 84.533
3.5277 8.25089 87.6036
226.254 36.0724 -13.2453
223.494 37.2787 -15.4582
-147.005 22.4164 -67.7919
-143.842 23.6718 -68.1946
-167.021 -43.0242 -49.7754
-163.503 -43.4791 -50.7997
-215.267 -7.15918 -44.9371
-215.167 -3.16338 -45.4516
-105.64 -17.6333 77.8894
-104.104 -21.1692 77.2593
-247.959 -12.5234 7.72451
-247.222 -12.2249 10.5722
-226.224 -18.8469 33.5131
-129.026 -40.834 -63.5485
238.447 4.07551 -27.6834
236.191 2.11801 -30.1592
30.6982 -3.75189 -87.2614
26.7246 -2.02418 -87.4784
-224.961 -22.5404 32.25
-47.6604 -75.8722 41.3438
-235.553 -26.7706 15.3058
-110.325 51.1629 -60.3008
-237.919 -25.2893 13.1988
-16.8386 -1.49995 -87.7897
-20.0207 -4.03555 -87.6279
25.3088 7.4863 -87.2326
27.3882 3.67826 -87.3993
25.4651 1.69078 -87.5314
45.9789 -6.33653 -86.2845
-242.159 -16.9751 16.6257
249.587 -5.36906 -9.40943
249.11 -2.30254 -11.8807
-169.143 48.1645 43.8354
30.4517 -13.4906 -86.3045
-165.518 47.9343 45.7405
-244.371 -14.4432 14.9728
243.986 6.92793 20.1943
244.544 3.56435 20.2422
-218.53 -34.2528 26.9079
-142.146 -69.4109 21.269
-139.63 -70.7398 18.7862
-221.096 -32.0564 27.0478
-157.971 -59.8001 33.3576
-205.039 32.4611 39.2832
-154.319 -61.3638 32.6017
21.3258 7.3468 87.3747
-119.08 18.5026 75.27
-116.41 20.5855 75.2405
25.5781 -59.0333 64.6449
29.1131 -57.6626 65.6906
-134.57 55.033 -49.9826
-136.867 52.5468 -51.8595
-177.094 57.9168 23.4508
-176.702 59.3891 19.8553
-70.0468 65.182 -53.8015
-62.7643 16.9265 -83.5176
-66.3792 16.9204 -83.176
-66.5081 66.7145 -52.4559
124.466 57.7448 50.1287
121.033 58.3509 50.4548
-132.441 -69.8471 26.7933
-132.815 -68.0011 30.9871
-188.869 35.1172 46.2979
-185.122 37.287 46.4539
-232.727 13.1736 -30.65
-60.0204 75.1193 40.7436
-61.3381 76.6341 37.5578
-231.927 16.7979 -29.6017
-175.271 -46.9571 -42.1659
-178.791 -11.2319 60.862
-181.799 -8.37631 60.2278
-195.824 53.7514 12.6478
-198.378 52.0645 14.6695
-195.137 -6.40446 -55.1457
-196.111 -2.36497 -55.0436
-155.758 25.0399 64.3956
-159.469 22.4811 64.2273
-196.21 -54.5515 -7.39857
-193.182 -56.048 -5.79661
-91.2595 75.1966 -32.7083
-87.2821 75.5737 -33.1651
-39.2312 -78.9677 -36.3273
-42.7323 -77.6548 -38.6026
-35.7159 20.5132 -84.6583
-119.25 -59.0784 -50.1268
-116.055 -58.3909 -51.8219
-103.566 -58.9122 54.4075
-107.461 -57.2214 55.2804
-176.09 46.9038 -41.8063
26.9049 13.9698 -86.3726
23.7998 15.769 -86.1742
-175.607 44.5875 -44.5026
-89.446 -39.5937 72.089
-93.3158 -38.4576 72.1034
-1.70685 -75.013 -46.0076
2.63217 -75.2491 -45.615
-158.023 -33.1978 -59.8722
-154.736 -36.633 -58.912
25.9205 72.8113 48.5825
28.3741 70.7953 51.3172
-166.594 38.8061 53.2935
-169.003 36.4314 54.0359
126.647 60.2631 46.3535
125.004 62.2378 44.2419
55.9236 20.2546 83.3718
-158.155 12.6407 67.2449
-155.547 9.85551 68.4449
-44.1572 73.3135 -46.1563
70.9701 53.0648 -65.6618
-41.489 74.9905 -43.6999
222.064 -27.8283 -30.5324
225.276 -26.0124 -29.2251
-17.6661 79.382 -37.4737
-20.3953 78.1093 -39.9
247.477 -7.06407 13.9944
245.671 -9.07239 16.5073
-182.894 19.8523 57.0487
-181.353 22.695 56.5894
-55.7313 68.5115 51.6712
-53.4702 70.3773 49.4065
-221.674 26.3868 -32.1184
245.289 -12.7014 14.7129
-123.338 -44.6609 -62.3456
-128.466 -46.901 -59.3612
-126.784 -44.247 -61.7919
-219.064 -11.054 41.7913
-206.371 49.8776 -6.4818
-208.056 48.515 -9.51788
-173.563 -35.1398 53.114
-196.134 -34.8662 -42.6455
-56.8462 10.621 85.0621
-99.6445 80.6523 4.85637
-149.825 -21.4693 67.3411
-153.215 -21.7156 66.3205
-105.758 79.8064 2.36273
-103.417 80.0297 5.46253
-208.26 -1.82582 -49.301
-211.702 -0.427319 -47.5053
7.08401 76.4436 -43.5228
8.78321 74.7142 -46.3933
-18.4414 85.9525 -17.7349
-21.8662 85.1991 -20.6534
12.5492 74.2285 -47.0622
-209.32 34.9067 -34.0774
-209.432 37.4797 -31.1325
-243.67 12.2896 -17.9907
-205.999 40.0884 -30.6839
-237.952 16.7285 23.0652
-240.124 13.5347 22.3944
-198.673 34.6957 41.3254
-44.093 -51.8616 -69.3999
-47.938 -52.1803 -68.8467
-64.9022 78.3165 -33.0879
-61.8052 79.3096 -31.4056
-198.908 37.6911 38.4643
-195.382 39.9832 38.3623
193.194 51.8477 -22.051
191.208 51.6121 -24.5777
-17.4551 72.4419 -49.587
-16.0462 70.7316 -52.0531
-160.718 -8.67934 67.1287
-158.265 -5.14588 68.1977
-159.18 -12.1855 67.0323
-155.588 -13.9513 67.7171
-181.218 -39.3687 -46.6209
-187.069 -34.8946 -47.3492
234.201 -8.19819 31.0077
231.367 -8.83967 33.3482
-185.724 -37.8057 -45.7348
-220.423 -36.3319 -21.8073
-223.2 -33.1948 -23.2994
-74.4232 69.5432 47.2189
-199.254 43.3671 -31.6629
-202.418 40.5127 -32.96
-79.1389 71.9129 42.4942
-75.317 71.7161 43.6612
-199.863 -47.1006 -25.2001
-196.405 -49.1627 -24.582
-156.238 -38.5649 57.168
-155.216 -34.6063 59.9733
-162.919 56.253 -36.4691
-159.773 58.0821 -35.2865
245.94 -16.0778 8.9523
246.756 -13.0534 10.9095
-202.193 25.1224 -45.9093
246.469 -16.6406 5.45931
-222.674 -40.7296 -3.81019
-219.563 -42.6765 -4.53636
-225.914 36.4526 -12.9115
-224.089 36.2113 -16.8756
-228.9 -34.8682 10.6498
-231.376 -33.5773 7.89119
-225.472 -37.7616 9.69478
119.585 74.8244 19.8613
-172.164 -51.1021 -38.7774
115.391 75.6391 19.8131
47.9096 12.1577 -85.5288
51.4973 10.7647 -85.4602
-180.222 -22.1773 57.2333
-179.956 52.3187 -32.2795
-165.454 0.846404 66.2701
-168.578 2.82335 65.2437
-181.021 -17.4196 58.555
36.4525 -59.7557 63.3291
37.7866 -57.2089 65.5464
-159.985 -59.9394 -31.9005
-182.768 -21.7984 -56.3841
-184.313 -18.0312 -57.0941
-11.945 15.0092 -86.6098
-188.59 -54.9979 19.1013
-192.466 -53.1212 19.67
-145.944 9.33127 -71.0576
-143.742 12.1322 -71.1841
-174.378 52.414 35.6922
-173.437 50.7129 38.5932
-187.185 39.7111 -43.3276
-231.5 33.4945 -7.79792
-229.094 35.9688 -4.95988
-234.905 30.8701 -5.9398
241.404 7.7208 23.4444
239.892 10.8367 24.102
240.609 13.4017 21.8298
-138.879 -61.8303 -39.4924
-138.123 -60.163 -42.2929
-141.496 -58.251 -43.5847
-200.351 -41.1648 -33.6905
-218.717 20.1145 -38.506
-52.698 9.0105 85.5734
-56.6798 -81.1831 27.5678
-60.1942 -81.4608 25.7784
-152.612 56.1695 41.6839
-153.403 58.0489 38.6424
-189.414 -9.89938 -57.0394
-186.067 -8.88048 -58.5363
64.911 -8.7117 84.571
67.8935 -7.07963 84.4366
-196.835 -37.2199 40.1899
-200.415 -34.6102 40.3557
-180.668 -48.2457 -37.6843
-174.532 -52.0916 -36.0703
-215.619 -38.5089 23.8559
-218.655 -36.4149 23.7602
-178.254 -50.9818 -35.4214
-121.612 47.9178 -60.3093
-71.4217 59.499 59.8277
26.8711 -68.3017 54.6852
24.809 -66.5886 56.8736
-87.1989 -8.59935 -82.0922
-84.0183 -6.29416 -82.7051
-32.9678 85.7768 -15.9144
-36.5408 85.2789 -17.5509
-75.2186 60.0155 58.732
-117.676 48.9403 -60.444
67.096 -10.9709 -84.098
63.3468 -11.5763 -84.3724
-122.356 44.7114 -62.5457
-76.2858 64.0071 -54.172
-79.7918 64.2074 -53.3097
-210.937 -46.4386 -11.8321
-207.911 -47.2775 -14.716
-70.383 -66.9057 51.5862
-82.5406 61.7086 -55.6951
181.005 57.5725 -20.4505
187.793 54.7423 -20.7269
-57.9846 -57.7701 -63.2059
-60.2472 -59.9501 -60.8737
185.031 56.5056 -18.9617
-52.2205 4.90126 85.9425
170.803 -60.94 -21.4145
166.657 -61.8364 -22.7991
-242.16 -11.2309 20.9366
-241.443 -7.71454 23.397
231.623 25.8609 -22.5154
229.371 25.1802 -25.8604
225.985 27.6874 -26.9258
-235.384 -18.9697 -24.5115
-234.85 -16.6287 -26.7376
-226.068 27.1615 -27.3718
-222.952 28.4609 -29.1248
-220.769 31.3754 -28.1508
-250.634 -7.29537 -0.178398
-176.052 45.3045 43.5528
58.6858 51.2473 -68.5278
59.7614 48.4181 -70.4446
128.112 68.3803 32.5378
131.604 68.305 30.9513
-176.942 47.6117 40.5468
-181.043 46.7532 39.3102
18.705 -86.418 15.2675
142.036 69.3644 -21.5088
141.1 68.396 -25.0698
23.2385 -86.1703 15.8921
181.098 -44.0245 42.3149
25.6368 -86.6619 12.3796
-189.027 21.6412 -53.8617
-189.447 17.8952 -55.0428
-212.326 -45.0146 14.0793
-120.851 -47.0047 -61.2085
-24.3202 -37.2744 79.2604
52.3249 18.5246 -84.0573
55.8384 16.7379 -84.1553
-25.2899 -41.1234 77.2953
-119.137 -6.54082 -77.2237
-115.757 -7.75701 -77.7387
-200.051 16.47 50.725
-215.148 -43.2644 14.3199
-153.437 33.0288 61.4063
-156.863 31.3504 61.226
-157.695 28.1997 62.4838
-79.9674 -83.4309 0.603013
-63.3688 72.7696 -44.2374
-62.618 70.7278 -47.5555
-79.8046 -83.3553 -4.02099
-209.642 -18.682 44.8799
-60.1445 71.357 47.0033
-205.671 -19.6749 46.6692
-191.283 -46.3886 33.3534
-190.154 -45.0079 35.936
-195.134 47.3225 29.0307
-192.217 -42.6382 37.4502
-97.6983 19.7827 78.6387
-94.1135 20.981 78.8631
-195.846 -41.8727 35.9829
-247.68 -8.81244 12.4832
188.065 -42.0218 40.5955
184.93 -44.2656 39.9694
-127.213 75.4991 7.91056
-123.592 76.0268 9.6856
48.8789 1.68343 86.3056
130.447 15.5914 -73.6043
-179.72 46.519 -40.3185
198.596 13.18 52.3604
200.49 9.43336 52.2853
113.357 74.8972 23.6896
109.617 75.3471 24.407
149.565 63.7423 -30.6951
145.737 65.3539 -29.539
-166.874 -45.6704 -47.4224
129.845 19.3552 -72.8369
-209.806 43.7066 -21.084
-206.945 46.1298 -19.3079
126.47 20.2074 -73.3308
-61.8941 -0.346818 85.2928
-59.1893 2.57941 85.4893
-53.8513 -2.00067 85.9358
[...]
POINT_DATA 10490
VECTORS F double
1.27599e-08 3.07832e-08 7.9563e-09
1.33101e-07 9.30558e-08 -4.51436e-08
1.29008e-07 6.87943e-07 3.20821e-07
5.90305e-08 -7.06192e-09 -2.77239e-08
2.89755e-07 2.67708e-07 -1.34548e-08
1.87209e-07 2.01595e-07 -8.65657e-09
8.64403e-08 2.75549e-08 -7.59093e-08
-1.81052e-06 2.07021e-06 1.10658e-07
1.00454e-06 7.7207e-07 1.62668e-07
1.10986e-06 6.61042e-07 -4.41003e-08
1.28054e-08 7.65218e-08 -4.37681e-08
1.12701e-08 6.05016e-08 -2.22002e-08
9.775e-08 3.74517e-07 2.02429e-07
-2.24895e-06 3.6204e-06 1.22115e-07
1.42211e-07 1.13107e-07 -1.60715e-09
3.38904e-06 5.93586e-07 -1.50103e-06
4.41876e-06 7.2861e-07 -2.40638e-06
-1.15918e-08 2.19128e-08 1.14673e-08
-1.35785e-08 2.12326e-08 1.3353e-08
-2.97625e-05 5.93573e-06 6.07826e-06
-2.88305e-05 5.08133e-06 4.43575e-06
-3.31129e-06 1.8702e-06 -2.82555e-07
-3.01035e-06 1.34609e-06 -2.3439e-07
3.13474e-08 2.26969e-07 -1.96133e-07
5.81948e-08 2.53794e-07 -2.33123e-07
1.27114e-08 1.66149e-07 9.70712e-08
-2.59653e-09 1.41851e-07 8.49486e-08
-4.32675e-08 1.78953e-07 2.29838e-07
-1.81116e-07 1.37329e-07 1.42343e-07
2.56848e-07 2.17646e-07 -1.98629e-07
5.88962e-07 2.69944e-07 1.14871e-07
3.85499e-07 2.97393e-07 -1.00842e-07
9.32616e-08 2.89942e-06 8.08946e-07
-3.47307e-07 1.4549e-06 3.93366e-07
-1.91207e-06 2.87063e-06 -1.82162e-08
1.30849e-08 2.86594e-08 5.8382e-08
0.000111249 2.40054e-05 5.13485e-05
0.000122449 2.8412e-05 5.99428e-05
3.95089e-08 7.92245e-10 -5.26258e-08
3.37799e-08 -2.46916e-09 -2.38844e-08
6.559e-07 3.64964e-07 3.91146e-09
2.53438e-08 2.92932e-08 6.10667e-08
3.38923e-07 2.68775e-06 5.14599e-07
-1.4209e-06 3.38644e-06 -3.11946e-07
-2.28989e-08 1.35966e-08 -1.08628e-08
-3.88239e-08 3.50281e-08 1.575e-08
1.33574e-06 9.07729e-07 -5.44689e-08
1.1023e-06 1.89625e-06 3.73572e-07
-5.45398e-08 1.07323e-07 -7.03611e-08
-4.76785e-08 1.20872e-07 -8.46662e-08
5.52613e-08 1.53469e-07 -5.68601e-08
7.31644e-08 1.62718e-07 -5.37295e-08
9.5109e-07 2.36503e-06 6.93344e-07
9.89686e-07 2.2788e-06 7.87664e-07
-4.16998e-08 1.01125e-07 6.69294e-11
-2.93895e-08 7.60959e-08 3.85443e-09
5.77743e-08 9.85608e-08 1.03177e-07
1.80599e-07 3.47396e-08 -6.72155e-08
-1.90838e-08 1.26882e-08 -1.82572e-08
-1.80265e-08 7.70026e-09 -1.6743e-08
-2.5998e-06 3.0627e-06 -2.4366e-07
-2.35858e-06 4.01821e-06 -1.81197e-07
1.13417e-08 8.82927e-08 7.13971e-08
-3.74936e-08 5.15349e-08 8.92822e-08
-1.19471e-08 1.278e-08 -1.56396e-10
1.55044e-05 6.57858e-06 2.10874e-06
-2.19081e-08 3.76717e-08 2.38327e-08
-5.7428e-07 5.07522e-06 -7.32302e-08
1.46676e-07 3.85701e-06 -1.81732e-07
-5.59107e-07 7.39522e-06 6.14796e-07
-3.59942e-06 5.60655e-06 9.78595e-08
-2.32332e-06 4.17847e-06 -2.04135e-09
-1.23644e-06 2.16559e-06 -2.39702e-07
4.95533e-09 4.59659e-08 5.57709e-08
2.62187e-09 1.32234e-08 9.61354e-10
-3.54276e-09 4.65804e-09 -9.99981e-09
2.8491e-07 4.08221e-07 -3.13941e-07
1.00326e-06 1.57247e-06 -2.0246e-07
4.34651e-07 5.82319e-07 -4.17684e-07
4.44809e-10 2.97919e-08 2.96291e-08
-9.73264e-09 1.08607e-08 1.06694e-08
-2.72992e-09 1.11789e-08 2.07179e-09
1.85409e-08 1.61622e-08 3.90079e-08
2.49187e-08 5.64527e-09 3.88144e-08
1.26442e-08 3.05749e-09 2.30212e-08
1.50962e-08 1.87286e-08 3.73044e-08
3.64578e-08 3.25773e-08 7.95378e-08
2.33279e-07 3.12573e-07 -1.09218e-07
3.77426e-08 2.76973e-08 7.40058e-08
1.05436e-07 4.53835e-06 -3.84754e-07
2.17127e-06 2.86244e-06 -2.83082e-07
1.97601e-06 3.36169e-06 -5.45449e-07
-2.45111e-08 1.75101e-07 1.61088e-07
-6.33096e-08 2.5856e-07 2.30396e-07
5.45563e-06 3.58446e-06 2.14832e-06
7.1976e-06 2.82073e-06 5.32442e-07
4.10211e-07 3.54153e-07 -4.95384e-07
1.36526e-06 6.22578e-07 -3.74646e-07
3.352e-05 2.29814e-05 2.24995e-05
2.46502e-06 1.19695e-06 1.57838e-08
2.20483e-06 -9.87712e-08 -2.35521e-07
3.26627e-05 2.55587e-05 2.74358e-05
-9.60255e-07 3.55607e-07 -1.17726e-07
-1.01974e-06 3.69438e-07 -1.27762e-07
2.70432e-09 1.2276e-08 3.36379e-08
-1.5902e-09 1.71603e-08 3.68227e-08
1.04568e-06 5.6511e-07 9.36243e-08
1.01832e-06 7.25155e-07 -8.52269e-08
6.33882e-08 8.73503e-08 -2.13836e-08
5.23272e-05 2.83038e-05 -4.27462e-05
5.21554e-05 2.7784e-05 -4.62627e-05
3.6205e-08 9.00486e-08 1.63685e-08
4.52496e-08 -2.2742e-08 2.29799e-09
4.37894e-07 3.79201e-07 2.27472e-07
2.1571e-07 1.40884e-07 9.93113e-08
7.06956e-07 3.85449e-07 -2.98019e-07
8.52274e-07 4.06708e-07 -3.24088e-08
-7.47958e-09 1.22595e-07 -1.09974e-08
1.31919e-07 1.7018e-07 -6.48551e-08
3.62015e-07 2.5483e-06 -8.83688e-07
1.31775e-06 9.54865e-07 6.63448e-08
7.62412e-09 -1.62069e-09 -1.28056e-08
-1.74721e-09 -3.62021e-10 1.06303e-08
2.94093e-05 8.64214e-06 9.82213e-06
3.08753e-05 1.00437e-05 1.29383e-05
-4.4485e-08 5.0841e-08 -1.04635e-07
-3.07001e-08 6.53933e-08 -1.27387e-07
2.13544e-06 1.19883e-05 2.79454e-06
1.28838e-07 1.61028e-07 -2.27309e-07
1.25286e-07 1.87693e-07 -2.45836e-07
3.5411e-08 1.40242e-07 1.60106e-07
8.08108e-08 2.27912e-07 2.55147e-07
2.70336e-06 8.04505e-07 -4.91477e-07
-1.14931e-07 6.88326e-06 1.1089e-06
-2.36306e-06 3.51078e-06 5.62528e-07
6.86909e-07 2.92911e-08 -3.02508e-07
2.19244e-07 5.48233e-07 3.34412e-07
2.81575e-07 8.70091e-07 5.08693e-07
-6.34176e-08 8.25118e-08 -1.34243e-07
-6.23681e-08 5.93903e-08 -9.84139e-08
1.26641e-07 2.45145e-07 -1.7685e-07
2.5907e-08 1.55145e-07 -1.04804e-07
-4.97648e-05 1.97478e-05 -2.63456e-05
-4.39921e-05 2.16402e-05 -2.6876e-05
2.78076e-06 1.25536e-06 1.50139e-07
2.40132e-06 1.45602e-06 -6.21542e-08
-4.93619e-07 1.56936e-07 -3.89062e-08
-1.38295e-06 2.16513e-08 4.47945e-07
-7.18644e-07 4.93207e-07 -6.08047e-08
9.38949e-07 1.064e-06 7.03558e-08
2.0885e-07 2.74106e-07 1.86396e-08
4.57482e-05 4.67176e-05 6.88462e-05
-5.90067e-06 2.84632e-06 1.51943e-06
4.7151e-05 4.63312e-05 7.40248e-05
-2.38925e-09 8.10212e-09 -9.51317e-09
-1.54757e-09 6.37536e-09 -7.13537e-09
5.62382e-05 5.96614e-05 0.000123137
5.32891e-05 6.08839e-05 0.000115853
-6.03967e-10 -4.05008e-10 1.10556e-09
-1.1184e-09 7.88755e-10 2.47429e-09
3.70522e-07 5.60556e-07 -4.96353e-08
2.99488e-07 6.23157e-07 -1.3241e-07
4.04646e-05 3.32966e-05 -3.88049e-05
3.81983e-05 3.44795e-05 -4.40531e-05
2.09838e-07 8.00842e-08 -1.11518e-07
-3.91793e-09 -1.58178e-09 6.63175e-09
2.48729e-07 1.98509e-07 -2.02444e-07
7.52133e-09 1.33507e-07 -1.07476e-07
2.30968e-07 3.67017e-08 -8.43004e-08
-2.82823e-09 1.3538e-07 3.39941e-08
5.92368e-07 3.15576e-07 1.19294e-07
6.32795e-07 3.41195e-07 4.5619e-08
9.07266e-08 1.36587e-07 1.26662e-07
9.34383e-08 4.98765e-09 -5.66911e-08
1.68249e-06 3.89936e-06 -3.49225e-07
3.91968e-05 5.98298e-06 -8.96325e-07
-4.60438e-08 2.66042e-07 7.22757e-08
-7.89277e-08 3.68073e-07 9.81953e-08
3.38681e-05 5.76217e-06 -9.02631e-06
3.63226e-05 6.38845e-06 -9.40307e-06
4.94324e-08 9.64933e-08 -2.91384e-08
6.99347e-08 1.96454e-07 -3.99236e-08
-4.65593e-05 2.83278e-05 4.88271e-05
-4.59497e-05 2.8398e-05 4.46685e-05
0.000325164 2.36892e-05 7.34096e-05
0.000268795 3.40353e-05 0.000105557
-4.59551e-05 2.14052e-05 3.22609e-05
3.09775e-07 2.32697e-07 5.39866e-09
9.24961e-07 5.01591e-07 -1.57952e-07
1.09904e-07 1.87619e-07 -5.40821e-08
8.29029e-07 6.38517e-07 1.528e-07
6.98506e-08 2.11385e-07 -6.50865e-08
8.31179e-08 1.77985e-07 1.5456e-09
4.22864e-07 -1.98954e-07 4.15929e-07
4.41266e-07 3.18642e-07 -2.72441e-07
4.06239e-07 4.06571e-07 -3.4278e-07
6.98994e-05 2.58755e-05 4.44587e-05
7.40066e-05 2.47733e-05 4.47293e-05
7.12711e-07 -4.99524e-08 5.00177e-07
5.17987e-07 3.03231e-07 6.94734e-09
-7.635e-08 3.62892e-08 3.42819e-09
-1.07644e-07 5.88759e-08 2.11071e-08
2.83116e-06 4.95796e-05 7.23089e-05
-9.71901e-06 4.60741e-05 6.29738e-05
7.22295e-07 4.19865e-07 2.66005e-07
8.85453e-07 3.49834e-07 2.77972e-07
1.77906e-07 1.55521e-07 7.99947e-08
2.94294e-07 3.69868e-07 1.58985e-07
1.04481e-07 1.024e-07 -1.36193e-07
1.18886e-07 8.00377e-08 -1.1649e-07
1.71722e-09 1.01758e-08 1.10329e-09
1.32871e-09 9.92346e-09 1.50142e-09
9.02057e-08 6.58902e-08 -9.93143e-08
3.51719e-09 3.46353e-09 -1.01234e-08
-1.35709e-09 5.68228e-09 -6.50523e-09
3.90947e-05 1.61813e-05 -1.62874e-05
8.25782e-07 6.71064e-07 2.82894e-07
8.66442e-07 6.30076e-07 1.22989e-07
3.28335e-05 1.10134e-05 -1.11515e-05
3.70607e-05 1.58708e-05 -1.82415e-05
4.1311e-09 1.46983e-08 -3.1484e-08
1.84117e-10 8.01157e-09 -1.6203e-08
6.20219e-08 2.59218e-07 1.95617e-07
1.9148e-07 2.40817e-07 1.9963e-07
1.56756e-06 1.15316e-06 9.21377e-07
1.94732e-06 1.05896e-06 6.63567e-07
2.05916e-09 7.15335e-09 5.92192e-09
7.63112e-10 7.64189e-09 7.03383e-09
3.42274e-07 2.39931e-07 -5.32626e-08
6.91671e-10 3.12125e-09 5.69957e-09
-2.88381e-08 2.03443e-08 -1.11337e-08
-2.19543e-08 1.02677e-08 3.35018e-08
3.25023e-07 2.47251e-07 1.79229e-09
4.22245e-07 3.27477e-07 1.62291e-08
1.19272e-08 -1.61404e-09 2.61005e-08
-2.8521e-09 1.18725e-08 4.02829e-08
1.42821e-09 -5.33514e-09 -1.6712e-08
-2.09e-06 2.41629e-07 6.30397e-07
5.26134e-08 -1.98856e-08 -2.39403e-09
-2.15518e-06 3.08146e-07 3.60365e-07
7.14665e-07 1.44362e-06 2.54217e-07
6.26119e-07 9.42828e-07 1.64951e-07
1.05996e-07 3.16672e-07 1.6357e-07
1.68773e-06 5.47398e-07 -2.6472e-07
4.49334e-07 2.04777e-07 1.34731e-07
4.61077e-07 2.86976e-07 1.33437e-07
1.4473e-07 3.42295e-07 1.56608e-07
-3.51756e-08 1.70486e-07 1.63344e-07
-1.60174e-08 1.80272e-07 1.58472e-07
4.25325e-08 1.22334e-08 -4.91013e-08
7.0888e-08 6.62407e-08 -5.37408e-08
2.3262e-07 1.27761e-07 -1.32289e-07
1.37937e-06 9.85369e-06 1.68432e-06
6.16612e-09 9.51524e-09 3.48515e-08
1.29461e-09 8.31945e-09 2.40199e-08
1.14309e-06 7.77478e-07 -1.85343e-07
7.83475e-07 1.17745e-06 6.98386e-09
1.93098e-06 1.25709e-06 -6.91015e-07
1.3237e-06 9.66963e-07 -5.42323e-07
1.13181e-06 1.11103e-06 4.19652e-07
3.73487e-07 3.14277e-07 -7.58195e-09
3.44297e-07 2.78923e-07 7.57244e-08
2.94592e-07 2.31535e-07 -2.23054e-07
-1.15264e-08 1.96486e-08 8.05951e-09
-7.73212e-09 2.46011e-08 -1.64007e-09
-8.16697e-09 2.41162e-08 -3.78297e-09
7.4202e-08 2.99959e-08 -7.89095e-08
1.32346e-08 5.71521e-08 -8.65921e-08
7.52934e-08 1.16276e-07 -1.8533e-07
-1.17683e-08 6.82537e-08 -7.48271e-08
1.36692e-07 2.13221e-07 1.63234e-08
2.77026e-06 5.95012e-06 -4.17659e-07
2.29692e-08 1.77558e-08 5.80691e-08
1.67046e-08 1.7193e-08 5.91046e-08
8.41579e-07 1.17774e-07 2.18531e-07
3.7521e-06 1.26567e-06 -7.76749e-08
1.46521e-07 2.60106e-07 -1.04713e-07
1.97589e-07 1.51316e-07 -9.98503e-08
2.16353e-07 4.98255e-07 3.09946e-08
3.90433e-08 9.18633e-07 7.31789e-08
1.87495e-08 7.18646e-08 7.77963e-08
1.35586e-08 7.32076e-08 7.10283e-08
2.12722e-08 2.47876e-08 -4.42202e-08
1.86319e-08 4.91127e-09 -1.81298e-08
1.46557e-08 3.55377e-09 2.19549e-08
1.68668e-08 1.25535e-08 3.82415e-08
1.49115e-08 1.88864e-08 -3.63703e-08
9.16672e-06 4.48901e-06 1.3036e-06
2.60719e-05 2.18264e-05 -1.78959e-05
-4.68334e-09 1.975e-07 2.46959e-07
-1.0541e-07 1.59794e-07 1.92719e-07
8.63142e-07 1.6778e-06 -2.88003e-07
7.81843e-07 1.95978e-06 -2.46388e-07
0.000220771 2.12628e-05 5.86083e-05
0.000199318 2.50624e-05 7.09681e-05
2.42024e-05 1.98583e-05 -1.64973e-05
8.9827e-06 6.90898e-06 3.45297e-06
-8.57964e-07 7.12707e-07 -1.76781e-07
-8.80016e-07 5.65354e-07 -1.58462e-07
5.80054e-06 4.45093e-06 1.79251e-06
2.89814e-05 2.23164e-05 2.13713e-05
2.58991e-05 1.73943e-05 1.6204e-05
9.56385e-10 -5.608e-09 1.99265e-08
-2.14371e-08 1.61331e-08 -1.47499e-08
-1.31635e-07 5.94916e-08 5.51698e-08
2.51965e-05 1.7139e-05 1.44177e-05
-2.02762e-07 5.99574e-08 -5.09287e-08
-1.60059e-07 7.61873e-08 2.36682e-08
-4.64882e-07 2.82548e-07 -2.06035e-07
-2.87298e-07 1.59452e-07 -1.22221e-07
-1.99293e-07 7.64936e-08 -1.01483e-08
8.19036e-07 5.46748e-06 -2.50882e-07
9.50279e-09 5.49346e-09 -6.3541e-09
9.8608e-09 7.24576e-09 -1.08289e-08
-1.52383e-08 3.41514e-08 -3.2593e-09
6.3082e-09 2.43232e-08 1.59911e-08
-5.37312e-09 1.41136e-08 9.4436e-09
-1.53833e-08 2.85865e-08 1.11291e-08
-1.89456e-08 2.48319e-08 6.06628e-09
-3.30218e-08 5.81818e-08 -6.20387e-09
4.60033e-08 3.74012e-09 -5.17966e-08
2.86728e-07 3.35821e-07 4.33083e-08
2.90533e-07 1.61976e-07 -1.14009e-07
2.10598e-07 2.00002e-07 2.07061e-08
-2.36255e-08 9.97239e-08 -1.45443e-08
9.75906e-07 5.06649e-07 -4.4053e-08
-3.77587e-06 3.29814e-06 2.07056e-06
-2.44907e-06 3.40463e-06 2.08571e-06
-1.02844e-06 6.81758e-08 3.52493e-07
-8.80724e-07 -5.49886e-08 5.79841e-07
1.59193e-06 8.00366e-07 -8.92953e-08
1.44733e-06 2.6294e-07 5.03355e-07
-1.40132e-08 8.69707e-09 5.13302e-08
-5.08093e-07 -2.74973e-08 -4.99473e-07
-9.01905e-07 6.16074e-08 -4.53409e-07
-4.42881e-09 2.59369e-10 2.20273e-09
-1.01707e-08 6.30358e-09 1.18878e-08
-1.06516e-08 -1.00258e-09 -4.31418e-09
1.84778e-07 5.36347e-07 1.36107e-07
1.34717e-07 5.22522e-07 1.13112e-07
-2.75866e-08 2.2138e-08 1.98473e-08
3.55454e-07 2.50361e-07 -2.78186e-07
-7.20584e-08 2.35091e-07 1.0785e-07
-1.61102e-06 2.12688e-06 3.45944e-07
-1.5309e-06 2.0547e-06 2.84303e-07
-1.53716e-07 2.13012e-07 1.0717e-07
-1.1921e-07 1.11721e-06 -7.21108e-08
-5.8811e-08 1.17059e-06 -1.06085e-07
3.16589e-07 6.11344e-07 -4.5635e-08
-2.65488e-08 2.67931e-08 3.21147e-08
1.58421e-06 2.92522e-06 -1.08876e-06
1.90411e-06 1.95531e-06 -4.03943e-07
-2.58743e-07 2.1671e-06 -1.05799e-06
-3.18232e-08 3.64438e-09 -1.25033e-08
4.1458e-05 3.15023e-05 4.45495e-05
3.0835e-05 3.03035e-05 4.00984e-05
6.47091e-09 -3.19889e-11 -1.50476e-08
7.91542e-10 7.87478e-08 3.32332e-08
4.75939e-05 2.91712e-05 -3.68294e-05
1.27154e-08 1.33308e-07 6.30617e-08
2.29179e-08 2.74809e-08 5.43128e-08
3.87288e-08 2.34689e-08 5.44841e-08
3.66681e-07 3.9262e-07 -3.38251e-07
2.47994e-08 2.37907e-08 4.26706e-08
2.50533e-06 6.87209e-06 -1.3477e-06
4.00092e-06 3.12589e-06 -2.47064e-07
1.16203e-08 6.60511e-08 8.46068e-08
-1.36524e-08 7.49985e-08 1.978e-08
-2.37108e-08 1.30629e-08 2.69703e-08
-1.20843e-08 3.93211e-10 7.28058e-09
7.70258e-06 1.65882e-06 -6.66504e-07
9.81267e-06 2.46392e-06 -4.01046e-06
-2.37399e-06 1.83003e-06 1.2891e-07
-1.58226e-07 3.89058e-07 4.80802e-08
2.70288e-06 1.06316e-06 -2.48398e-07
-5.60092e-08 7.77617e-08 6.43431e-09
-2.27523e-08 9.06831e-08 -5.68016e-09
-1.65008e-06 8.53733e-08 6.96808e-07
-1.93813e-06 5.41308e-07 -6.05342e-07
-9.63108e-07 2.35047e-07 -8.64491e-08
-1.13022e-06 1.38695e-07 -3.75844e-07
-7.64295e-08 1.02523e-07 -6.5808e-08
-4.26003e-07 3.77557e-07 7.35156e-09
5.16913e-07 1.70224e-07 -2.76887e-07
5.15568e-07 1.89811e-07 -2.23058e-07
-4.46931e-07 3.8788e-07 1.25157e-08
6.44365e-07 4.95025e-06 7.73746e-08
1.825e-06 4.13344e-06 2.99799e-08
1.2144e-06 3.46795e-06 1.73905e-07
1.28026e-08 1.5395e-08 5.44733e-08
8.47271e-06 1.81871e-06 4.12862e-07
9.53402e-06 2.05745e-06 -1.59909e-06
-1.49476e-06 6.21418e-06 -1.0795e-06
1.22583e-08 -2.00906e-09 1.45768e-08
1.9778e-06 3.96901e-06 7.39667e-08
2.74196e-06 1.01327e-05 5.6249e-06
5.1492e-06 5.99956e-06 2.55489e-06
1.12461e-05 9.8628e-06 4.63856e-06
9.62235e-08 4.06288e-07 6.50805e-08
5.78527e-08 5.38315e-07 4.4871e-08
-2.69529e-07 1.40701e-06 1.58898e-07
-3.18244e-08 7.5362e-07 8.679e-08
7.05613e-07 3.07004e-07 1.58882e-07
3.28642e-07 5.30092e-07 9.85234e-08
1.98857e-06 6.7265e-07 -3.03869e-08
2.76405e-06 1.19412e-06 4.98704e-07
-3.43377e-08 6.17464e-10 2.58182e-08
-2.91609e-08 -2.6297e-09 1.24915e-08
7.52598e-08 1.993e-08 -8.43977e-08
5.88997e-08 9.41109e-09 -5.13649e-08
-2.10529e-08 6.65193e-08 9.99737e-08
1.29253e-08 5.46974e-08 1.06839e-07
-1.59538e-08 5.63922e-08 9.34876e-08
2.69291e-07 1.0244e-07 2.06786e-07
4.09489e-07 2.53576e-07 -7.85254e-08
5.86281e-07 2.76767e-07 1.44801e-07
2.34721e-08 7.82055e-08 -8.48491e-08
1.27173e-08 7.97438e-08 -8.10617e-08
-5.50255e-08 5.95859e-07 -3.42946e-07
2.30824e-08 3.40725e-07 -2.00797e-07
-2.37289e-07 2.86164e-06 -5.25106e-07
-8.40962e-07 1.97522e-06 -3.64597e-07
-1.53917e-08 6.5889e-08 -5.81118e-08
2.11251e-07 -1.44196e-08 -3.91573e-08
-1.9169e-08 5.31897e-09 1.12491e-08
1.33543e-08 3.48851e-08 -5.33626e-08
-1.6836e-06 3.72528e-06 -1.61965e-07
-8.17923e-08 3.70235e-07 -2.74924e-07
-1.44941e-07 3.19387e-07 -2.25138e-07
2.31089e-05 3.56119e-05 3.46546e-05
1.75767e-06 9.24633e-07 1.39345e-06
0.000101247 9.03826e-06 2.76436e-06
0.000115823 9.78795e-06 -1.36138e-05
8.7978e-05 1.01606e-05 -2.5909e-05
0.000109361 9.68788e-06 -8.71097e-06
1.87716e-06 8.95084e-07 1.43714e-06
2.22288e-05 2.77188e-05 2.605e-05
2.15565e-05 2.73917e-05 2.36063e-05
4.64435e-08 3.06476e-08 -8.41981e-08
-2.56357e-08 5.96786e-09 -3.13312e-08
-1.32908e-08 4.92193e-09 -5.33355e-08
5.22157e-08 1.95424e-08 -6.99761e-08
2.33413e-08 9.40343e-09 -3.4742e-08
1.43396e-07 2.55347e-07 9.16707e-08
1.0168e-07 3.85873e-07 2.35757e-07
-6.37916e-07 8.78344e-08 2.26057e-07
-2.37453e-05 9.09109e-06 -8.62544e-06
-2.34407e-05 1.07452e-05 -1.143e-05
-9.0507e-07 7.63667e-07 -2.1223e-07
2.1945e-07 2.09612e-07 -1.70554e-07
3.53332e-07 3.93441e-07 1.04332e-07
1.91589e-07 5.3884e-07 -2.8421e-07
1.79969e-07 2.21792e-07 -1.48535e-07
1.19203e-07 4.4512e-09 7.12095e-08
9.74958e-08 5.23098e-08 1.25635e-07
6.05863e-08 3.1251e-08 8.04445e-08
1.24469e-06 1.656e-06 -1.14823e-07
1.37295e-06 1.87843e-06 -1.17299e-07
-5.21134e-05 2.02956e-05 -2.98276e-05
-9.8127e-08 2.13881e-07 5.48765e-09
3.0904e-08 5.37811e-09 1.9094e-08
-2.87692e-08 6.38615e-08 1.15435e-07
6.60757e-07 2.00965e-06 -2.1417e-07
6.81229e-07 1.35926e-06 -1.7093e-07
-5.54861e-08 9.64543e-08 -1.25927e-09
1.2272e-07 1.94257e-07 3.24324e-09
-1.10775e-07 1.70649e-07 -1.18474e-08
-1.82476e-05 1.30074e-06 -6.71904e-07
4.45225e-09 1.09018e-07 -5.22779e-08
-1.8673e-09 9.26458e-08 -4.56192e-08
-8.68225e-06 -5.07118e-07 -2.25684e-06
8.10504e-07 7.72726e-07 -2.84435e-07
-1.41975e-05 3.74416e-06 3.45913e-06
-1.16174e-08 1.05796e-07 9.44974e-11
1.76017e-06 6.36473e-07 1.66174e-07
1.92833e-06 5.12081e-07 4.93675e-07
2.68158e-09 6.99961e-08 -3.76208e-08
-1.03043e-08 8.15363e-08 2.30794e-08
1.16209e-07 2.10644e-07 -1.29095e-07
1.80862e-08 -1.01999e-08 -1.89561e-08
1.78563e-08 1.00083e-09 -3.84139e-08
4.51238e-07 4.83004e-07 -1.38489e-07
5.67636e-07 4.05064e-07 6.46746e-08
2.84305e-06 2.30461e-06 9.45892e-07
3.53644e-05 3.39551e-05 4.34698e-05
2.75279e-05 3.37354e-05 4.02161e-05
1.66589e-08 8.24933e-10 -5.11634e-10
-1.45657e-08 4.07129e-10 -1.78769e-08
2.46024e-05 3.10592e-05 3.48058e-05
3.6075e-07 9.90269e-08 1.53886e-07
1.7762e-07 1.47707e-07 9.04638e-09
-2.32049e-08 5.71742e-08 -3.12057e-09
-9.69718e-08 1.80336e-07 1.62124e-07
-8.92748e-08 1.97704e-07 1.62595e-07
-5.69766e-07 3.27308e-06 2.7e-07
-8.81716e-08 3.90849e-08 3.57652e-08
-2.77288e-08 1.1856e-07 9.19127e-08
-5.81249e-05 3.60245e-05 -5.6945e-05
-4.42775e-05 3.04865e-05 -4.44478e-05
-7.18871e-07 3.29096e-06 2.84059e-07
1.03888e-06 1.23935e-06 -2.58982e-07
-2.72621e-07 2.76067e-06 3.61387e-07
-2.76686e-09 -2.84891e-09 -2.55865e-08
1.13393e-07 7.33435e-07 -2.36309e-07
5.22158e-07 3.673e-05 -3.55968e-05
2.84915e-07 3.9956e-07 -5.39551e-08
9.61697e-07 6.58978e-07 6.88221e-07
6.22279e-08 1.08863e-07 -5.59735e-08
-3.3993e-08 4.86968e-08 2.90663e-08
8.88313e-09 2.31852e-09 -4.55166e-09
-3.87037e-09 3.40275e-09 -2.14056e-08
-1.53357e-05 2.10941e-05 -2.06774e-05
-3.14447e-08 6.43387e-08 9.82721e-08
1.36891e-06 5.0998e-07 -2.05718e-07
-5.26795e-09 -2.61515e-09 1.63997e-09
6.26003e-08 1.2776e-07 1.3853e-07
2.06885e-08 1.3248e-09 2.18043e-08
1.7416e-05 2.58859e-05 -1.86586e-05
2.69702e-07 8.54376e-08 -1.04713e-07
1.31622e-05 2.70837e-05 -2.21664e-05
0.000444271 1.07286e-05 -9.60929e-05
0.000435347 1.48766e-05 -9.41969e-05
1.33113e-08 9.74598e-08 9.2168e-08
7.7883e-05 6.88776e-05 -0.000182425
1.08632e-08 1.09953e-07 8.83983e-08
-5.27869e-08 6.89875e-08 1.32456e-08
-6.16912e-08 5.01465e-08 -5.88875e-09
4.03688e-08 1.51763e-07 1.26797e-07
1.10262e-06 1.13564e-06 -3.61435e-07
1.42776e-08 1.25659e-09 -1.08403e-08
3.50319e-07 2.79102e-07 -1.04407e-07
3.29281e-05 3.84761e-05 -4.16215e-05
3.53732e-07 1.95099e-07 7.1845e-08
3.56882e-07 1.55807e-07 1.37278e-07
3.66441e-07 1.87011e-07 1.15666e-07
3.25622e-05 3.6759e-05 5.22207e-05
-9.16668e-08 4.91451e-08 -1.87008e-08
-8.04596e-08 4.21969e-08 -4.77233e-08
-1.6222e-07 1.03121e-07 -1.40306e-08
-2.90899e-07 2.53871e-07 -7.05554e-08
3.78804e-05 4.1574e-05 5.7567e-05
7.6232e-06 2.87747e-06 -4.36789e-07
2.10476e-06 5.31104e-06 -2.81803e-06
2.14109e-06 4.74679e-06 -2.34822e-06
0.000285163 1.4489e-05 -5.15651e-05
0.000270276 1.61134e-05 -5.08959e-05