# vtk DataFile Version 2.0
S, Created by Mohamad Ibrahim Cheikh
ASCII
DATASET UNSTRUCTURED_GRID
POINTS 10490 double
-223.577 20.3388 -34.7913
-223.731 23.2845 -32.7647
-130.492 -29.3128 69.282
-194.384 -37.8826 -41.0226
-207.474 29.5058 40.0419
-235.878 27.3968 13.4742
-191.275 -39.712 -41.0817
14.4177 -3.14712 87.7989
-191.076 39.2171 -41.6665
-193.417 36.9283 -42.4285
-251.147 3.21195 -3.38058
-251.007 5.4621 -0.714798
-204.327 29.2971 -42.122
18.6187 -1.53984 87.745
-201.23 30.363 -43.1793
-151.349 68.7365 -14.6575
-148.563 69.9458 -12.2245
241.381 21.7604 -11.7087
240.378 24.3445 -8.78234
39.7421 72.8812 -47.3176
43.5724 72.1783 -47.9776
45.4488 -3.21278 -86.4915
49.308 -1.52061 -86.2788
-145.563 -45.4959 -55.4977
-142.059 -46.9206 -55.4232
-191.797 -27.3654 49.9138
-189.472 -30.0435 49.4589
-64.3395 -67.8369 51.3356
-66.4797 -66.0169 53.3356
-121.23 -41.6807 -64.8645
-205.495 44.6054 24.1733
-208.435 41.8694 25.9219
-64.8764 -22.6087 81.9606
-61.2404 -23.9388 81.9254
44.3257 4.16674 86.5222
-201.398 -44.9177 27.5764
-52.8272 82.487 -24.4588
-49.754 82.1278 -26.381
-109.541 -78.4117 -11.2483
-105.515 -79.2425 -10.0782
-195.5 42.6377 35.3085
-200.947 -43.0032 30.8386
-54.4295 -15.3419 84.5335
3.52628 8.25428 87.6033
226.254 36.0724 -13.2453
223.494 37.2787 -15.4582
-147.003 22.4173 -67.792
-143.841 23.6737 -68.1943
-167.021 -43.0241 -49.7755
-163.503 -43.479 -50.7998
-215.267 -7.15902 -44.9372
-215.167 -3.16321 -45.4517
-105.639 -17.6309 77.8901
-104.103 -21.1669 77.2601
-247.959 -12.5233 7.72451
-247.222 -12.2248 10.5722
-226.224 -18.8468 33.5132
-129.026 -40.8339 -63.5485
238.447 4.07552 -27.6834
236.191 2.11802 -30.1592
30.6956 -3.74884 -87.2616
26.7223 -2.02018 -87.4785
-224.961 -22.5404 32.25
-47.6604 -75.8721 41.3439
-235.553 -26.7706 15.3058
-110.309 51.1695 -60.2987
-237.919 -25.2893 13.1988
-16.8392 -1.49489 -87.7898
-20.0205 -4.0317 -87.628
25.3083 7.49366 -87.232
27.3846 3.68384 -87.3992
25.4627 1.69495 -87.5314
45.9777 -6.33437 -86.2848
-242.159 -16.9751 16.6257
249.587 -5.36904 -9.40943
249.11 -2.30253 -11.8807
-169.142 48.1649 43.835
30.4527 -13.489 -86.3047
-165.517 47.9349 45.74
-244.371 -14.4432 14.9728
243.986 6.92794 20.1943
244.544 3.56436 20.2422
-218.53 -34.2528 26.9079
-142.146 -69.4109 21.269
-139.63 -70.7398 18.7863
-221.096 -32.0564 27.0479
-157.971 -59.8 33.3577
-205.039 32.4615 39.2831
-154.319 -61.3638 32.6018
21.3259 7.35134 87.3743
-119.078 18.5055 75.2697
-116.408 20.5889 75.24
25.5781 -59.0331 64.6451
29.113 -57.6624 65.6908
-134.565 55.0365 -49.9805
-136.86 52.5496 -51.859
-177.094 57.9171 23.4503
-176.7 59.3897 19.8549
-70.0136 65.2048 -53.7791
-62.7618 16.9277 -83.5176
-66.377 16.9203 -83.1762
-66.4759 66.7399 -52.4286
124.465 57.7451 50.1286
121.032 58.3513 50.4547
-132.441 -69.8471 26.7933
-132.815 -68.0011 30.9872
-188.868 35.1177 46.298
-185.121 37.2878 46.4538
-232.727 13.1737 -30.65
-59.9686 75.1473 40.7012
-61.2862 76.6616 37.5119
-231.927 16.7979 -29.6017
-175.271 -46.9572 -42.1659
-178.791 -11.2315 60.8622
-181.799 -8.37617 60.2279
-195.823 53.7517 12.6475
-198.377 52.0649 14.6694
-195.137 -6.40434 -55.1457
-196.111 -2.3648 -55.0437
-155.757 25.0424 64.3947
-159.468 22.4821 64.2274
-196.21 -54.5515 -7.39858
-193.182 -56.048 -5.7966
-91.2302 75.2052 -32.6986
-87.2514 75.5837 -33.1522
-39.2313 -78.9677 -36.3274
-42.7323 -77.6548 -38.6028
-35.7138 20.5251 -84.6556
-119.25 -59.0783 -50.1271
-116.055 -58.3908 -51.8221
-103.566 -58.9121 54.4077
-107.46 -57.2211 55.2806
-176.087 46.9046 -41.8068
26.9047 13.9766 -86.3715
23.7974 15.7725 -86.1736
-175.606 44.5875 -44.5029
-89.4458 -39.5932 72.0893
-93.3155 -38.4567 72.104
-1.70692 -75.0129 -46.0077
2.63211 -75.249 -45.6151
-158.022 -33.1975 -59.8724
-154.736 -36.6328 -58.9121
25.8707 72.831 48.5562
28.3301 70.817 51.2903
-166.591 38.8074 53.2937
-169.001 36.4328 54.0359
126.646 60.2633 46.3535
125.003 62.2378 44.2423
55.9229 20.2551 83.3717
-158.154 12.6418 67.245
-155.546 9.85578 68.4449
-44.1115 73.3597 -46.0882
70.9642 53.0677 -65.6603
-41.4418 75.0363 -43.6268
222.064 -27.8283 -30.5324
225.276 -26.0124 -29.2252
-17.6071 79.441 -37.3519
-20.3397 78.1696 -39.7851
247.477 -7.06407 13.9944
245.671 -9.07239 16.5073
-182.894 19.8528 57.0487
-181.352 22.6956 56.5892
-55.6909 68.5447 51.6324
-53.4318 70.4116 49.3626
-221.674 26.3868 -32.1185
245.289 -12.7014 14.7129
-123.337 -44.6607 -62.3458
-128.466 -46.9009 -59.3613
-126.784 -44.247 -61.792
-219.064 -11.0539 41.7913
-206.371 49.8779 -6.48168
-208.056 48.5153 -9.51783
-173.563 -35.1397 53.1141
-196.134 -34.8662 -42.6456
-56.8445 10.6249 85.0618
-99.6058 80.6582 4.8554
-149.825 -21.469 67.3412
-153.215 -21.7152 66.3206
-105.725 79.8121 2.3539
-103.381 80.036 5.45335
-208.26 -1.82572 -49.3011
-211.702 -0.427123 -47.5053
7.03967 76.4721 -43.4735
8.73819 74.7425 -46.3488
-18.1214 85.9755 -17.6638
-21.5999 85.2319 -20.5524
12.5042 74.25 -47.0298
-209.319 34.9069 -34.0774
-209.432 37.4802 -31.1327
-243.67 12.2898 -17.9908
-205.998 40.0891 -30.6837
-237.952 16.7287 23.0651
-240.124 13.5348 22.3944
-198.672 34.6955 41.3258
-44.0926 -51.8613 -69.4002
-47.9376 -52.1799 -68.847
-64.8328 78.3421 -33.044
-61.7317 79.334 -31.3616
-198.907 37.6911 38.4648
-195.382 39.9835 38.3623
193.194 51.8477 -22.051
191.208 51.6122 -24.5777
-17.4517 72.4911 -49.5151
-16.0556 70.7773 -51.9905
-160.717 -8.67892 67.1289
-158.264 -5.14553 68.1979
-159.18 -12.1854 67.0323
-155.588 -13.9509 67.7173
-181.218 -39.3686 -46.621
-187.069 -34.8946 -47.3493
234.201 -8.19818 31.0077
231.367 -8.83966 33.3482
-185.724 -37.8057 -45.7349
-220.423 -36.3319 -21.8073
-223.2 -33.1948 -23.2994
-74.3845 69.5593 47.2027
-199.253 43.3678 -31.6627
-202.417 40.5133 -32.9599
-79.1064 71.9239 42.4831
-75.2803 71.7319 43.643
-199.863 -47.1006 -25.2001
-196.405 -49.1627 -24.582
-156.238 -38.5646 57.1682
-155.216 -34.606 59.9735
-162.917 56.2542 -36.4682
-159.771 58.0832 -35.2858
245.94 -16.0778 8.95231
246.756 -13.0534 10.9095
-202.193 25.1226 -45.9094
246.469 -16.6406 5.45932
-222.674 -40.7296 -3.8102
-219.563 -42.6765 -4.53632
-225.914 36.4529 -12.9115
-224.089 36.2116 -16.8756
-228.9 -34.8682 10.6498
-231.376 -33.5773 7.89123
-225.472 -37.7616 9.69476
119.583 74.8247 19.8619
-172.164 -51.1022 -38.7774
115.389 75.6394 19.8134
47.9103 12.1591 -85.5285
51.498 10.7656 -85.46
-180.222 -22.1769 57.2334
-179.954 52.3192 -32.2798
-165.454 0.846609 66.2702
-168.577 2.82364 65.2438
-181.021 -17.4192 58.5552
36.4525 -59.7555 63.3293
37.7866 -57.2087 65.5466
-159.985 -59.9394 -31.9005
-182.767 -21.7983 -56.3842
-184.313 -18.0311 -57.0942
-11.9436 15.019 -86.6081
-188.59 -54.9979 19.1013
-192.466 -53.1212 19.67
-145.943 9.33205 -71.0578
-143.741 12.1334 -71.1841
-174.376 52.4152 35.6915
-173.436 50.7138 38.5926
-187.184 39.7122 -43.3271
-231.499 33.4948 -7.79793
-229.094 35.9691 -4.9598
-234.905 30.8703 -5.94002
241.404 7.72082 23.4444
239.892 10.8367 24.102
240.609 13.4018 21.8298
-138.879 -61.8302 -39.4925
-138.123 -60.1629 -42.293
-141.496 -58.2509 -43.5849
-200.351 -41.1647 -33.6906
-218.716 20.1147 -38.506
-52.6952 9.01644 85.573
-56.6798 -81.1831 27.5679
-60.1942 -81.4608 25.7784
-152.611 56.1696 41.6842
-153.399 58.0501 38.6423
-189.414 -9.89912 -57.0395
-186.066 -8.88033 -58.5364
64.9112 -8.7112 84.571
67.8936 -7.07871 84.4366
-196.835 -37.2198 40.19
-200.415 -34.6102 40.3558
-180.668 -48.2457 -37.6843
-174.532 -52.0916 -36.0703
-215.619 -38.5089 23.8559
-218.655 -36.4149 23.7602
-178.254 -50.9818 -35.4215
-121.603 47.9223 -60.308
-71.3956 59.5207 59.8099
26.8711 -68.3015 54.6855
24.8089 -66.5884 56.8738
-87.198 -8.59767 -82.0925
-84.0175 -6.2922 -82.7054
-32.7498 85.7976 -15.8572
-36.3439 85.3034 -17.4816
-75.1944 60.0352 58.7156
-117.667 48.9471 -60.4406
67.0951 -10.9702 -84.0982
63.3459 -11.5757 -84.3725
-122.351 44.7159 -62.5439
-76.257 64.0292 -54.1509
-79.7661 64.2246 -53.2937
-210.937 -46.4386 -11.8321
-207.911 -47.2775 -14.716
-70.3831 -66.9057 51.5862
-82.5156 61.7256 -55.6807
181.005 57.5725 -20.4505
187.793 54.7424 -20.7269
-57.985 -57.7698 -63.2061
-60.2474 -59.9499 -60.8738
185.031 56.5057 -18.9617
-52.2197 4.90673 85.9422
170.803 -60.94 -21.4145
166.657 -61.8364 -22.7991
-242.16 -11.2308 20.9366
-241.443 -7.71452 23.397
231.623 25.8609 -22.5154
229.371 25.1802 -25.8604
225.985 27.6875 -26.9258
-235.384 -18.9697 -24.5115
-234.85 -16.6287 -26.7377
-226.068 27.1619 -27.3718
-222.952 28.4611 -29.1249
-220.769 31.3756 -28.1508
-250.634 -7.29527 -0.178412
-176.051 45.305 43.5527
58.6821 51.2506 -68.5257
59.7589 48.4216 -70.4425
128.111 68.3804 32.5382
131.603 68.3049 30.9519
-176.94 47.6125 40.5467
-181.041 46.7535 39.3107
18.705 -86.418 15.2675
142.036 69.3644 -21.5093
141.099 68.3961 -25.0703
23.2385 -86.1703 15.8921
181.098 -44.0245 42.3149
25.6368 -86.6619 12.3796
-189.027 21.6417 -53.8615
-189.447 17.8957 -55.0427
-212.326 -45.0146 14.0793
-120.85 -47.0044 -61.2088
-24.3203 -37.2742 79.2605
52.3233 18.5267 -84.057
55.8368 16.74 -84.155
-25.2901 -41.1232 77.2954
-119.137 -6.53971 -77.2238
-115.757 -7.75584 -77.7388
-200.051 16.4707 50.725
-215.148 -43.2644 14.32
-153.435 33.0318 61.4052
-156.861 31.3524 61.2256
-157.695 28.2018 62.4827
-79.9674 -83.4309 0.603001
-63.3276 72.8008 -44.1934
-62.5873 70.7578 -47.5158
-79.8046 -83.3553 -4.021
-209.642 -18.682 44.8799
-60.0973 71.3859 46.9667
-205.671 -19.6748 46.6692
-191.283 -46.3886 33.3534
-190.154 -45.0078 35.936
-195.133 47.3229 29.0303
-192.217 -42.6382 37.4503
-97.6958 19.7895 78.6374
-94.1095 20.9841 78.8629
-195.846 -41.8727 35.983
-247.68 -8.81236 12.4832
188.065 -42.0218 40.5955
184.93 -44.2656 39.9694
-127.205 75.5007 7.90991
-123.582 76.0293 9.68161
48.8765 1.68526 86.3058
130.447 15.5918 -73.6042
-179.717 46.52 -40.3187
198.595 13.1801 52.3604
200.49 9.43345 52.2853
113.355 74.8973 23.6903
109.615 75.3477 24.4064
149.564 63.7425 -30.6952
145.735 65.354 -29.5394
-166.875 -45.6703 -47.4225
129.845 19.3556 -72.8369
-209.805 43.7068 -21.0843
-206.945 46.13 -19.3081
126.47 20.2078 -73.3308
-61.8934 -0.341869 85.2929
-59.1875 2.58355 85.4894
-53.8501 -1.99719 85.9359
[...]
POINT_DATA 10490
VECTORS F double
1.27798e-08 3.06974e-08 7.89022e-09
1.32668e-07 9.27446e-08 -4.5003e-08
1.29983e-07 6.90056e-07 3.21932e-07
5.89742e-08 -7.13197e-09 -2.76277e-08
2.89576e-07 2.6698e-07 -1.30329e-08
1.86766e-07 2.01046e-07 -8.49528e-09
8.63269e-08 2.74201e-08 -7.57157e-08
-1.8178e-06 2.08501e-06 1.1128e-07
1.00071e-06 7.68295e-07 1.61283e-07
1.10458e-06 6.58364e-07 -4.34713e-08
1.27647e-08 7.6292e-08 -4.36177e-08
1.12252e-08 6.02716e-08 -2.20701e-08
9.79853e-08 3.7307e-07 2.01287e-07
-2.25627e-06 3.63598e-06 1.2242e-07
1.42191e-07 1.13518e-07 -1.30581e-09
3.38467e-06 5.99329e-07 -1.4683e-06
4.40849e-06 7.32377e-07 -2.36885e-06
-1.14283e-08 2.1639e-08 1.13692e-08
-1.33904e-08 2.09612e-08 1.3233e-08
-2.94389e-05 6.06389e-06 6.31275e-06
-2.85342e-05 5.17601e-06 4.61417e-06
-3.29085e-06 1.86241e-06 -2.80894e-07
-2.99172e-06 1.34258e-06 -2.32989e-07
3.13172e-08 2.26471e-07 -1.95713e-07
5.8144e-08 2.5332e-07 -2.32704e-07
1.29068e-08 1.66217e-07 9.72005e-08
-2.39116e-09 1.41903e-07 8.50772e-08
-4.34412e-08 1.79747e-07 2.30859e-07
-1.81666e-07 1.38048e-07 1.43148e-07
2.56396e-07 2.17238e-07 -1.98262e-07
5.87268e-07 2.6901e-07 1.14826e-07
3.84798e-07 2.96264e-07 -9.97127e-08
9.59414e-08 2.90608e-06 8.10933e-07
-3.43328e-07 1.46598e-06 3.96941e-07
-1.91872e-06 2.87849e-06 -1.82787e-08
1.31607e-08 2.86501e-08 5.84345e-08
0.000109255 2.32492e-05 4.95159e-05
0.00012024 2.75641e-05 5.80465e-05
3.95097e-08 7.78034e-10 -5.25307e-08
3.37884e-08 -2.47906e-09 -2.38187e-08
6.5496e-07 3.63954e-07 4.48819e-09
2.54419e-08 2.92761e-08 6.11224e-08
3.35832e-07 2.69706e-06 5.15958e-07
-1.42744e-06 3.40246e-06 -3.13558e-07
-2.25455e-08 1.33813e-08 -1.07089e-08
-3.82386e-08 3.45129e-08 1.55435e-08
1.33176e-06 9.05105e-07 -5.42649e-08
1.10337e-06 1.87621e-06 3.66394e-07
-5.44034e-08 1.07087e-07 -7.02126e-08
-4.75543e-08 1.20599e-07 -8.44802e-08
5.51366e-08 1.52967e-07 -5.6706e-08
7.29486e-08 1.62195e-07 -5.35675e-08
9.52994e-07 2.36613e-06 6.9383e-07
9.9411e-07 2.2806e-06 7.8881e-07
-4.1608e-08 1.00926e-07 1.06637e-10
-2.93155e-08 7.59379e-08 3.88445e-09
5.78522e-08 9.84503e-08 1.03178e-07
1.80425e-07 3.47452e-08 -6.71755e-08
-1.88522e-08 1.25317e-08 -1.80355e-08
-1.78043e-08 7.59651e-09 -1.6537e-08
-2.58605e-06 3.04738e-06 -2.42292e-07
-2.3476e-06 3.99633e-06 -1.80088e-07
1.1448e-08 8.81896e-08 7.14149e-08
-3.75877e-08 5.17964e-08 8.97491e-08
-1.18927e-08 1.27377e-08 -1.2673e-10
1.51935e-05 6.54804e-06 2.15373e-06
-2.18463e-08 3.76127e-08 2.38535e-08
-5.63274e-07 5.04293e-06 -7.26452e-08
1.44824e-07 3.84248e-06 -1.80842e-07
-5.74279e-07 7.32508e-06 6.08861e-07
-3.56699e-06 5.56516e-06 9.77359e-08
-2.31043e-06 4.15743e-06 -1.78271e-09
-1.23506e-06 2.15581e-06 -2.38837e-07
4.99796e-09 4.58769e-08 5.57526e-08
2.59917e-09 1.30748e-08 9.78133e-10
-3.49728e-09 4.59909e-09 -9.86949e-09
2.90178e-07 4.06223e-07 -3.09264e-07
9.95805e-07 1.56822e-06 -2.02086e-07
4.39951e-07 5.80497e-07 -4.13439e-07
4.87432e-10 2.9711e-08 2.96353e-08
-9.67568e-09 1.07521e-08 1.06226e-08
-2.73558e-09 1.10687e-08 2.09628e-09
1.86148e-08 1.61178e-08 3.90272e-08
2.50175e-08 5.67267e-09 3.89834e-08
1.27002e-08 3.07594e-09 2.31393e-08
1.51654e-08 1.86758e-08 3.73118e-08
3.66143e-08 3.2654e-08 7.97679e-08
2.3369e-07 3.11519e-07 -1.08088e-07
3.79109e-08 2.77691e-08 7.42375e-08
7.4619e-08 4.54852e-06 -3.84926e-07
2.17591e-06 2.85819e-06 -2.81256e-07
1.98247e-06 3.35529e-06 -5.42634e-07
-2.45991e-08 1.76332e-07 1.62216e-07
-6.3625e-08 2.60287e-07 2.31928e-07
5.40218e-06 3.53172e-06 2.10828e-06
7.08776e-06 2.79086e-06 5.37938e-07
4.12094e-07 3.52991e-07 -4.9079e-07
1.35979e-06 6.19372e-07 -3.71051e-07
3.27537e-05 2.26476e-05 2.22385e-05
2.42885e-06 1.24615e-06 2.91099e-08
2.17017e-06 -5.20562e-08 -2.22624e-07
3.18242e-05 2.52719e-05 2.72301e-05
-9.50308e-07 3.45439e-07 -1.09044e-07
-1.00975e-06 3.61185e-07 -1.21158e-07
2.74981e-09 1.23274e-08 3.38021e-08
-1.52739e-09 1.72271e-08 3.70033e-08
1.04391e-06 5.63597e-07 9.38759e-08
1.01768e-06 7.21358e-07 -8.25028e-08
6.31971e-08 8.71183e-08 -2.13047e-08
5.1496e-05 2.77349e-05 -4.19181e-05
5.155e-05 2.72886e-05 -4.54573e-05
3.61027e-08 8.98097e-08 1.63326e-08
4.5209e-08 -2.27861e-08 2.36869e-09
4.38651e-07 3.79531e-07 2.27802e-07
2.1634e-07 1.41074e-07 9.95701e-08
7.04265e-07 3.83931e-07 -2.9669e-07
8.48918e-07 4.0509e-07 -3.22383e-08
-7.40235e-09 1.22228e-07 -1.09889e-08
1.31514e-07 1.69654e-07 -6.46548e-08
3.64408e-07 2.53829e-06 -8.79202e-07
1.31442e-06 9.55183e-07 6.5204e-08
7.66108e-09 -1.64241e-09 -1.27684e-08
-1.72417e-09 -3.77651e-10 1.06921e-08
2.9128e-05 8.49718e-06 9.59324e-06
3.05914e-05 9.97769e-06 1.28909e-05
-4.45017e-08 5.07477e-08 -1.04431e-07
-3.07192e-08 6.52896e-08 -1.27175e-07
2.04001e-06 1.17871e-05 2.75247e-06
1.28719e-07 1.608e-07 -2.27004e-07
1.252e-07 1.87387e-07 -2.45467e-07
3.57625e-08 1.40934e-07 1.60935e-07
8.12457e-08 2.28836e-07 2.56204e-07
2.68186e-06 7.99298e-07 -4.86187e-07
-1.40125e-07 6.81901e-06 1.09811e-06
-2.34965e-06 3.50401e-06 5.61899e-07
6.89911e-07 3.41012e-08 -2.99136e-07
2.21151e-07 5.50943e-07 3.36184e-07
2.83263e-07 8.72463e-07 5.1021e-07
-6.33593e-08 8.23043e-08 -1.33904e-07
-6.23048e-08 5.92483e-08 -9.81788e-08
1.2654e-07 2.44631e-07 -1.7653e-07
2.59805e-08 1.54799e-07 -1.04612e-07
-4.99705e-05 1.98212e-05 -2.64709e-05
-4.40355e-05 2.17535e-05 -2.70575e-05
2.77311e-06 1.25063e-06 1.50602e-07
2.39599e-06 1.44971e-06 -5.99934e-08
-4.90687e-07 1.50611e-07 -3.16671e-08
-1.36154e-06 1.88285e-08 4.44498e-07
-7.47579e-07 5.23907e-07 -6.58917e-08
9.4072e-07 1.06227e-06 7.11716e-08
2.12178e-07 2.7419e-07 1.9552e-08
4.56412e-05 4.57203e-05 6.74255e-05
-5.90941e-06 2.90037e-06 1.56219e-06
4.73546e-05 4.52242e-05 7.22762e-05
-2.36611e-09 8.00232e-09 -9.40015e-09
-1.53052e-09 6.29448e-09 -7.04767e-09
6.17266e-05 5.83145e-05 0.000120462
5.78724e-05 5.98596e-05 0.00011399
-6.18172e-10 -4.1857e-10 1.12815e-09
-1.13261e-09 7.66287e-10 2.48399e-09
3.71458e-07 5.6012e-07 -4.91223e-08
3.0153e-07 6.22235e-07 -1.31246e-07
4.04073e-05 3.31704e-05 -3.86994e-05
3.85273e-05 3.41992e-05 -4.36765e-05
2.09085e-07 7.98535e-08 -1.11071e-07
-3.91212e-09 -1.58726e-09 6.61283e-09
2.48304e-07 1.98133e-07 -2.0207e-07
7.70086e-09 1.33226e-07 -1.07302e-07
2.30589e-07 3.66618e-08 -8.41763e-08
-2.63592e-09 1.35257e-07 3.4085e-08
5.89519e-07 3.14089e-07 1.18981e-07
6.30082e-07 3.39716e-07 4.53524e-08
9.11275e-08 1.36741e-07 1.26923e-07
9.33127e-08 4.88855e-09 -5.65394e-08
1.71819e-06 3.88668e-06 -3.44904e-07
3.82909e-05 5.85226e-06 -1.04593e-06
-4.54559e-08 2.66765e-07 7.26652e-08
-7.83778e-08 3.68678e-07 9.85461e-08
3.31851e-05 5.63713e-06 -8.64955e-06
3.55473e-05 6.23293e-06 -8.97256e-06
4.93241e-08 9.62463e-08 -2.90732e-08
6.97368e-08 1.95823e-07 -3.98085e-08
-4.21902e-05 2.87275e-05 4.96965e-05
-4.41379e-05 2.81886e-05 4.44384e-05
0.000315109 2.22832e-05 6.88768e-05
0.000263847 3.1492e-05 9.66465e-05
-4.41016e-05 2.15073e-05 3.25198e-05
3.09073e-07 2.3195e-07 5.16242e-09
9.20711e-07 4.99258e-07 -1.57248e-07
1.09558e-07 1.87058e-07 -5.38886e-08
8.25476e-07 6.35349e-07 1.51597e-07
6.97623e-08 2.10892e-07 -6.48432e-08
8.29928e-08 1.77566e-07 1.63326e-09
4.22648e-07 -1.97622e-07 4.14678e-07
4.39769e-07 3.18129e-07 -2.71938e-07
4.04832e-07 4.05797e-07 -3.42069e-07
6.88182e-05 2.52319e-05 4.32896e-05
7.302e-05 2.40883e-05 4.33375e-05
7.11548e-07 -4.90974e-08 4.98595e-07
5.17778e-07 3.02456e-07 7.62135e-09
-7.49121e-08 3.5551e-08 3.2346e-09
-1.05727e-07 5.77921e-08 2.06575e-08
3.84681e-06 4.89545e-05 7.15043e-05
-9.0281e-06 4.54005e-05 6.21473e-05
7.23995e-07 4.20355e-07 2.66562e-07
8.87612e-07 3.50101e-07 2.78602e-07
1.79239e-07 1.55882e-07 8.0447e-08
2.95727e-07 3.70328e-07 1.59481e-07
1.04322e-07 1.02172e-07 -1.35924e-07
1.18676e-07 7.98135e-08 -1.16223e-07
1.67545e-09 1.01018e-08 1.12212e-09
1.29065e-09 9.85649e-09 1.51724e-09
9.00699e-08 6.57006e-08 -9.90912e-08
3.53633e-09 3.39378e-09 -1.00293e-08
-1.3307e-09 5.60121e-09 -6.42021e-09
3.82948e-05 1.60037e-05 -1.61951e-05
8.22861e-07 6.67777e-07 2.80662e-07
8.6287e-07 6.2715e-07 1.22093e-07
3.22116e-05 1.09207e-05 -1.11452e-05
3.63735e-05 1.57133e-05 -1.81449e-05
4.13395e-09 1.46361e-08 -3.13703e-08
2.0087e-10 7.97121e-09 -1.6139e-08
6.24851e-08 2.59757e-07 1.96135e-07
1.92277e-07 2.41318e-07 2.0017e-07
1.56529e-06 1.14824e-06 9.15089e-07
1.94552e-06 1.05271e-06 6.54318e-07
2.02492e-09 7.07855e-09 5.90781e-09
7.34701e-10 7.56211e-09 7.01314e-09
3.41329e-07 2.39364e-07 -5.30615e-08
6.69331e-10 3.07764e-09 5.68779e-09
-2.88136e-08 2.03247e-08 -1.10992e-08
-2.19342e-08 1.02485e-08 3.35553e-08
3.23909e-07 2.46445e-07 1.9081e-09
4.20688e-07 3.26297e-07 1.62357e-08
1.19954e-08 -1.6613e-09 2.61268e-08
-2.79153e-09 1.1833e-08 4.03307e-08
1.48504e-09 -5.37704e-09 -1.6712e-08
-2.05353e-06 2.37097e-07 6.2051e-07
5.25784e-08 -1.99262e-08 -2.31956e-09
-2.11992e-06 3.03108e-07 3.54393e-07
7.02705e-07 1.44052e-06 2.52982e-07
6.15533e-07 9.42165e-07 1.64099e-07
1.06453e-07 3.16819e-07 1.63801e-07
1.67787e-06 5.45467e-07 -2.61103e-07
4.50818e-07 2.0508e-07 1.3518e-07
4.62583e-07 2.87442e-07 1.33891e-07
1.45498e-07 3.42503e-07 1.56958e-07
-3.54154e-08 1.71668e-07 1.64476e-07
-1.61766e-08 1.81528e-07 1.59578e-07
4.25175e-08 1.21885e-08 -4.90067e-08
7.0834e-08 6.60752e-08 -5.36556e-08
2.32094e-07 1.27413e-07 -1.3197e-07
1.31743e-06 9.75042e-06 1.66861e-06
6.21724e-09 9.51877e-09 3.49214e-08
1.33445e-09 8.31655e-09 2.40597e-08
1.13868e-06 7.75321e-07 -1.84507e-07
7.8499e-07 1.16996e-06 5.35228e-09
1.91928e-06 1.24719e-06 -6.83555e-07
1.32076e-06 9.6087e-07 -5.35968e-07
1.12732e-06 1.10528e-06 4.16788e-07
3.72193e-07 3.13226e-07 -7.37836e-09
3.43144e-07 2.78007e-07 7.56218e-08
2.93573e-07 2.30768e-07 -2.22088e-07
-1.14554e-08 1.94693e-08 8.03035e-09
-7.69632e-09 2.43742e-08 -1.58006e-09
-8.11865e-09 2.38846e-08 -3.70703e-09
7.41338e-08 2.9927e-08 -7.87717e-08
1.32204e-08 5.70524e-08 -8.6445e-08
7.51939e-08 1.16087e-07 -1.85035e-07
-1.17234e-08 6.81023e-08 -7.46749e-08
1.36288e-07 2.1248e-07 1.62178e-08
2.80836e-06 5.9448e-06 -4.14653e-07
2.30717e-08 1.78708e-08 5.84338e-08
1.67709e-08 1.73067e-08 5.94865e-08
8.59766e-07 1.2414e-07 2.18101e-07
3.72329e-06 1.25334e-06 -7.3241e-08
1.46191e-07 2.59352e-07 -1.04446e-07
1.97102e-07 1.50906e-07 -9.95985e-08
2.11546e-07 5.00344e-07 3.16582e-08
3.46493e-08 9.20209e-07 7.37337e-08
1.88653e-08 7.18874e-08 7.78871e-08
1.36588e-08 7.32207e-08 7.1101e-08
2.12836e-08 2.46796e-08 -4.40884e-08
1.86461e-08 4.838e-09 -1.80332e-08
1.4721e-08 3.51836e-09 2.19707e-08
1.69312e-08 1.25163e-08 3.82579e-08
1.49342e-08 1.87935e-08 -3.62512e-08
9.02376e-06 4.45008e-06 1.30849e-06
2.61142e-05 2.15669e-05 -1.7646e-05
-4.68301e-09 1.9873e-07 2.48493e-07
-1.05964e-07 1.60825e-07 1.93955e-07
8.58371e-07 1.67277e-06 -2.86819e-07
7.75429e-07 1.95632e-06 -2.4528e-07
0.000215332 2.03848e-05 5.58443e-05
0.000194481 2.39908e-05 6.75615e-05
2.42174e-05 1.95222e-05 -1.61639e-05
8.85768e-06 6.76981e-06 3.37121e-06
-8.54508e-07 7.08443e-07 -1.75879e-07
-8.77128e-07 5.64636e-07 -1.58092e-07
5.72522e-06 4.41286e-06 1.78376e-06
2.85874e-05 2.1809e-05 2.08586e-05
2.55883e-05 1.70497e-05 1.58577e-05
9.91935e-10 -5.65415e-09 2.0026e-08
-2.14256e-08 1.61005e-08 -1.46674e-08
-1.31989e-07 5.9881e-08 5.56164e-08
2.47219e-05 1.68664e-05 1.4212e-05
-1.98975e-07 5.86735e-08 -5.0438e-08
-1.56972e-07 7.46605e-08 2.30602e-08
-4.64174e-07 2.82228e-07 -2.05819e-07
-2.86925e-07 1.59363e-07 -1.22177e-07
-1.95575e-07 7.49707e-08 -1.02444e-08
8.38417e-07 5.46012e-06 -2.49369e-07
9.42582e-09 5.43103e-09 -6.25159e-09
9.78417e-09 7.17888e-09 -1.07147e-08
-1.51546e-08 3.40089e-08 -3.21584e-09
6.36789e-09 2.41834e-08 1.60211e-08
-5.27364e-09 1.39242e-08 9.3502e-09
-1.51559e-08 2.82183e-08 1.10182e-08
-1.8671e-08 2.44981e-08 6.00587e-09
-3.29563e-08 5.80023e-08 -6.14385e-09
4.59446e-08 3.63202e-09 -5.16653e-08
2.85752e-07 3.34656e-07 4.3144e-08
2.89549e-07 1.61501e-07 -1.13549e-07
2.10034e-07 1.99352e-07 2.05249e-08
-2.35715e-08 9.94968e-08 -1.44974e-08
9.75498e-07 5.03436e-07 -4.0921e-08
-3.76301e-06 3.34849e-06 2.10982e-06
-2.46212e-06 3.44891e-06 2.11503e-06
-1.01147e-06 6.52697e-08 3.50408e-07
-8.66168e-07 -5.49468e-08 5.72153e-07
1.58688e-06 7.95203e-07 -8.59558e-08
1.44319e-06 2.62608e-07 5.01403e-07
-1.40522e-08 8.74608e-09 5.16163e-08
-5.03364e-07 -2.74849e-08 -4.9559e-07
-8.94251e-07 6.07455e-08 -4.50467e-07
-4.44651e-09 2.95053e-10 2.39894e-09
-1.02332e-08 6.29078e-09 1.19069e-08
-1.0663e-08 -9.75411e-10 -4.1207e-09
1.83772e-07 5.34043e-07 1.35619e-07
1.34601e-07 5.2026e-07 1.12431e-07
-2.7581e-08 2.21451e-08 1.98795e-08
3.54804e-07 2.49881e-07 -2.77658e-07
-7.12404e-08 2.37101e-07 1.08826e-07
-1.59674e-06 2.12011e-06 3.45599e-07
-1.51778e-06 2.0443e-06 2.83357e-07
-1.53712e-07 2.14959e-07 1.08205e-07
-1.1736e-07 1.11283e-06 -7.20739e-08
-5.69571e-08 1.16675e-06 -1.06021e-07
3.16705e-07 6.09905e-07 -4.51199e-08
-2.65388e-08 2.68e-08 3.21544e-08
1.58576e-06 2.90417e-06 -1.07712e-06
1.89889e-06 1.95026e-06 -4.03062e-07
-2.49466e-07 2.1616e-06 -1.05273e-06
-3.18941e-08 3.6529e-09 -1.23662e-08
4.10156e-05 3.08434e-05 4.36132e-05
3.06865e-05 2.96954e-05 3.92719e-05
6.49937e-09 -4.19772e-11 -1.49098e-08
9.64913e-10 7.86561e-08 3.3293e-08
4.68413e-05 2.87028e-05 -3.62879e-05
1.29031e-08 1.33313e-07 6.3164e-08
2.30152e-08 2.74988e-08 5.44063e-08
3.88576e-08 2.34765e-08 5.45764e-08
3.66464e-07 3.91206e-07 -3.36134e-07
2.49046e-08 2.37971e-08 4.27445e-08
2.53303e-06 6.80929e-06 -1.32832e-06
3.98065e-06 3.20139e-06 -2.70266e-07
1.17157e-08 6.60823e-08 8.47056e-08
-1.35955e-08 7.483e-08 1.98028e-08
-2.37647e-08 1.3052e-08 2.69889e-08
-1.21432e-08 3.8902e-10 7.30914e-09
7.64165e-06 1.64277e-06 -6.34563e-07
9.73393e-06 2.44106e-06 -3.95741e-06
-2.37879e-06 1.84049e-06 1.28991e-07
-1.58068e-07 3.85178e-07 4.72957e-08
2.68103e-06 1.05514e-06 -2.45669e-07
-5.57277e-08 7.70861e-08 6.47382e-09
-2.26222e-08 8.99867e-08 -5.61577e-09
-1.63775e-06 8.7833e-08 6.81748e-07
-1.92123e-06 5.31417e-07 -5.84165e-07
-9.51761e-07 2.31527e-07 -8.69802e-08
-1.11826e-06 1.36071e-07 -3.74408e-07
-7.63265e-08 1.02311e-07 -6.5648e-08
-4.24488e-07 3.7388e-07 6.70771e-09
5.15165e-07 1.69762e-07 -2.75707e-07
5.13876e-07 1.89274e-07 -2.22113e-07
-4.45391e-07 3.84615e-07 1.19444e-08
6.44286e-07 4.94714e-06 7.70676e-08
1.81852e-06 4.13626e-06 2.91414e-08
1.21095e-06 3.48428e-06 1.73878e-07
1.28444e-08 1.53914e-08 5.45265e-08
8.38132e-06 1.79913e-06 4.02506e-07
9.42084e-06 2.03131e-06 -1.55031e-06
-1.49946e-06 6.22502e-06 -1.08191e-06
1.23023e-08 -2.02967e-09 1.45983e-08
1.97481e-06 3.98578e-06 7.31908e-08
2.82099e-06 9.94107e-06 5.49928e-06
5.10974e-06 5.99992e-06 2.56229e-06
1.10318e-05 9.67097e-06 4.54951e-06
9.71428e-08 4.0679e-07 6.54342e-08
5.91353e-08 5.38203e-07 4.52861e-08
-2.72792e-07 1.40824e-06 1.59342e-07
-3.55481e-08 7.5584e-07 8.74145e-08
7.03337e-07 3.06059e-07 1.58104e-07
3.30329e-07 5.29959e-07 9.90764e-08
1.98252e-06 6.70162e-07 -3.12395e-08
2.74534e-06 1.18252e-06 4.88325e-07
-3.44235e-08 6.47564e-10 2.59698e-08
-2.92502e-08 -2.60133e-09 1.26488e-08
7.52486e-08 1.98556e-08 -8.42255e-08
5.89139e-08 9.35288e-09 -5.12485e-08
-2.11095e-08 6.68606e-08 1.00497e-07
1.30124e-08 5.49541e-08 1.07346e-07
-1.59543e-08 5.66712e-08 9.39684e-08
2.68929e-07 1.02318e-07 2.06445e-07
4.08522e-07 2.52739e-07 -7.75388e-08
5.8438e-07 2.75829e-07 1.44489e-07
2.34607e-08 7.80266e-08 -8.46761e-08
1.2723e-08 7.95494e-08 -8.08912e-08
-5.43989e-08 5.94616e-07 -3.42312e-07
2.34424e-08 3.40364e-07 -2.00644e-07
-2.55664e-07 2.87978e-06 -5.27611e-07
-8.59126e-07 1.99769e-06 -3.68367e-07
-1.53405e-08 6.57242e-08 -5.79757e-08
2.10825e-07 -1.39112e-08 -3.91999e-08
-1.92024e-08 5.25453e-09 1.12385e-08
1.33711e-08 3.47681e-08 -5.32341e-08
-1.67171e-06 3.73377e-06 -1.62324e-07
-8.1847e-08 3.69322e-07 -2.74239e-07
-1.44808e-07 3.18659e-07 -2.24618e-07
2.27147e-05 3.51709e-05 3.42787e-05
1.74952e-06 9.19341e-07 1.38266e-06
9.93768e-05 8.86227e-06 3.21026e-06
0.000113494 9.56437e-06 -1.26457e-05
8.6863e-05 9.9161e-06 -2.45611e-05
0.000107485 9.45818e-06 -7.89843e-06
1.87442e-06 8.90611e-07 1.41784e-06
2.18545e-05 2.75065e-05 2.58989e-05
2.12072e-05 2.71775e-05 2.34643e-05
4.64403e-08 3.05465e-08 -8.40502e-08
-2.56499e-08 5.96013e-09 -3.12065e-08
-1.32856e-08 4.91623e-09 -5.32591e-08
5.22026e-08 1.9449e-08 -6.98326e-08
2.3347e-08 9.3276e-09 -3.46249e-08
1.43045e-07 2.5452e-07 9.13005e-08
1.01685e-07 3.84196e-07 2.34454e-07
-6.26119e-07 8.5443e-08 2.23643e-07
-2.38468e-05 9.18791e-06 -8.73747e-06
-2.37272e-05 1.06567e-05 -1.12941e-05
-9.01482e-07 7.62135e-07 -2.11792e-07
2.19055e-07 2.0923e-07 -1.70244e-07
3.53798e-07 3.92767e-07 1.04613e-07
1.91396e-07 5.37458e-07 -2.8357e-07
1.798e-07 2.2143e-07 -1.4833e-07
1.19548e-07 4.4512e-09 7.13961e-08
9.77877e-08 5.24299e-08 1.25958e-07
6.08097e-08 3.13261e-08 8.06783e-08
1.2356e-06 1.64773e-06 -1.13918e-07
1.36341e-06 1.86772e-06 -1.16418e-07
-5.29274e-05 2.05358e-05 -3.02027e-05
-9.71666e-08 2.11056e-07 5.3067e-09
3.10361e-08 5.46399e-09 1.92916e-08
-2.88333e-08 6.41272e-08 1.15935e-07
6.55846e-07 1.99912e-06 -2.12848e-07
6.76608e-07 1.35645e-06 -1.70235e-07
-5.49149e-08 9.50635e-08 -1.32073e-09
1.22309e-07 1.93656e-07 3.29028e-09
-1.09602e-07 1.68449e-07 -1.17797e-08
-1.81438e-05 1.41133e-06 -4.81358e-07
4.23027e-09 1.08111e-07 -5.18852e-08
-2.0594e-09 9.1902e-08 -4.52992e-08
-8.84835e-06 -3.99185e-07 -2.11294e-06
8.08893e-07 7.69494e-07 -2.82247e-07
-1.42366e-05 3.76436e-06 3.48455e-06
-1.15905e-08 1.05549e-07 1.76895e-10
1.75008e-06 6.3402e-07 1.63417e-07
1.91904e-06 5.09422e-07 4.91528e-07
2.67022e-09 6.97833e-08 -3.74867e-08
-1.02515e-08 8.13683e-08 2.30928e-08
1.15958e-07 2.10064e-07 -1.28602e-07
1.81231e-08 -1.02635e-08 -1.88925e-08
1.78895e-08 9.35512e-10 -3.83351e-08
4.50623e-07 4.81432e-07 -1.37411e-07
5.66405e-07 4.03833e-07 6.48354e-08
2.82824e-06 2.28755e-06 9.36514e-07
3.51012e-05 3.32225e-05 4.25216e-05
2.71776e-05 3.29882e-05 3.93423e-05
1.66214e-08 8.19225e-10 -2.74557e-10
-1.46191e-08 3.88678e-10 -1.76494e-08
2.46542e-05 3.06e-05 3.42789e-05
3.6042e-07 9.8796e-08 1.53822e-07
1.77847e-07 1.47358e-07 9.40729e-09
-2.31258e-08 5.70497e-08 -3.06495e-09
-9.74058e-08 1.8153e-07 1.6319e-07
-8.95953e-08 1.99022e-07 1.63671e-07
-5.63787e-07 3.28314e-06 2.71242e-07
-8.85339e-08 3.88855e-08 3.57708e-08
-2.75591e-08 1.18781e-07 9.21715e-08
-5.73989e-05 3.6483e-05 -5.78378e-05
-4.32547e-05 3.09063e-05 -4.5175e-05
-7.13043e-07 3.29944e-06 2.85237e-07
1.04032e-06 1.23541e-06 -2.56918e-07
-2.69523e-07 2.77091e-06 3.62959e-07
-2.7697e-09 -2.93797e-09 -2.54518e-08
1.27241e-07 7.35179e-07 -2.33407e-07
1.13137e-06 3.67767e-05 -3.5651e-05
2.9246e-07 4.0829e-07 -5.47921e-08
9.57699e-07 6.55512e-07 6.83276e-07
6.20233e-08 1.08509e-07 -5.57852e-08
-3.39134e-08 4.86e-08 2.90984e-08
8.81892e-09 2.28725e-09 -4.43066e-09
-3.8817e-09 3.36441e-09 -2.12191e-08
-1.55932e-05 2.11982e-05 -2.07876e-05
-3.13676e-08 6.42138e-08 9.82093e-08
1.36136e-06 5.07748e-07 -2.02679e-07
-5.25024e-09 -2.60307e-09 1.67055e-09
6.29435e-08 1.28043e-07 1.38913e-07
2.07663e-08 1.27615e-09 2.18124e-08
1.70873e-05 2.57953e-05 -1.863e-05
2.69034e-07 8.56327e-08 -1.0467e-07
1.33707e-05 2.69022e-05 -2.20127e-05
0.000431637 9.9357e-06 -9.20676e-05
0.000420669 1.40156e-05 -9.09625e-05
1.34256e-08 9.75054e-08 9.22716e-08
8.94837e-05 6.79466e-05 -0.000180854
1.10129e-08 1.09999e-07 8.85119e-08
-5.20329e-08 6.79162e-08 1.30061e-08
-6.07937e-08 4.93793e-08 -5.82326e-09
4.05109e-08 1.51816e-07 1.26909e-07
1.09802e-06 1.13083e-06 -3.59901e-07
1.42947e-08 1.19264e-09 -1.07484e-08
3.49731e-07 2.78154e-07 -1.03385e-07
3.30331e-05 3.79837e-05 -4.10894e-05
3.53046e-07 1.94552e-07 7.19925e-08
3.56281e-07 1.5545e-07 1.37159e-07
3.6561e-07 1.8645e-07 1.15603e-07
3.26168e-05 3.58321e-05 5.08635e-05
-9.01928e-08 4.83588e-08 -1.83755e-08
-7.91673e-08 4.15108e-08 -4.70271e-08
-1.60403e-07 1.0117e-07 -1.32627e-08
-2.87694e-07 2.50382e-07 -6.92865e-08
3.78959e-05 4.06684e-05 5.63085e-05
7.59953e-06 2.93626e-06 -4.81574e-07
2.16742e-06 5.24625e-06 -2.7657e-06
2.22179e-06 4.71965e-06 -2.3168e-06
0.000277347 1.36469e-05 -4.76064e-05
0.000262489 1.52239e-05 -4.71827e-05