# vtk DataFile Version 2.0
S, Created by Mohamad Ibrahim Cheikh
ASCII
DATASET UNSTRUCTURED_GRID
POINTS 10490 double
-223.577 20.3388 -34.7913
-223.73 23.2846 -32.7648
-130.492 -29.3121 69.2823
-194.384 -37.8826 -41.0227
-207.473 29.5061 40.0418
-235.878 27.397 13.4742
-191.275 -39.712 -41.0818
14.4159 -3.14502 87.799
-191.075 39.2179 -41.6663
-193.415 36.929 -42.4286
-251.147 3.21203 -3.38062
-251.007 5.46216 -0.71482
-204.327 29.2975 -42.1218
18.6164 -1.53619 87.7451
-201.23 30.3631 -43.1793
-151.346 68.7371 -14.659
-148.558 69.9466 -12.2269
241.381 21.7605 -11.7087
240.378 24.3445 -8.78233
39.7129 72.8873 -47.3112
43.544 72.1835 -47.973
45.4456 -3.21092 -86.4918
49.305 -1.51927 -86.279
-145.563 -45.4957 -55.4979
-142.059 -46.9204 -55.4234
-191.797 -27.3652 49.9139
-189.472 -30.0433 49.459
-64.3395 -67.8367 51.3359
-66.4799 -66.0168 53.3357
-121.23 -41.6805 -64.8647
-205.494 44.6056 24.1734
-208.435 41.8697 25.9218
-64.8764 -22.6058 81.9614
-61.2407 -23.9373 81.9258
44.3238 4.16963 86.5222
-201.398 -44.9176 27.5765
-52.7188 82.5099 -24.4101
-49.6347 82.1549 -26.3238
-109.541 -78.4117 -11.2483
-105.515 -79.2425 -10.0782
-195.5 42.638 35.3085
-200.947 -43.0032 30.8387
-54.4292 -15.3391 84.5341
3.52485 8.25769 87.603
226.254 36.0724 -13.2453
223.494 37.2788 -15.4582
-147.002 22.4182 -67.792
-143.839 23.6756 -68.1939
-167.021 -43.024 -49.7755
-163.503 -43.4789 -50.7999
-215.267 -7.15887 -44.9373
-215.167 -3.16305 -45.4518
-105.639 -17.6285 77.8908
-104.102 -21.1646 77.2609
-247.959 -12.5232 7.72451
-247.222 -12.2247 10.5722
-226.224 -18.8467 33.5133
-129.025 -40.8339 -63.5486
238.447 4.07553 -27.6834
236.191 2.11803 -30.1593
30.693 -3.7458 -87.2619
26.72 -2.01619 -87.4787
-224.961 -22.5403 32.2501
-47.6605 -75.8721 41.344
-235.553 -26.7706 15.3058
-110.294 51.176 -60.2965
-237.919 -25.2893 13.1988
-16.8397 -1.48986 -87.7899
-20.0204 -4.02786 -87.6282
25.3077 7.50096 -87.2314
27.3811 3.68939 -87.3991
25.4604 1.6991 -87.5314
45.9764 -6.33221 -86.285
-242.159 -16.975 16.6258
249.587 -5.36903 -9.40943
249.11 -2.30253 -11.8807
-169.142 48.1653 43.8347
30.4537 -13.4874 -86.3049
-165.517 47.9355 45.7396
-244.371 -14.4432 14.9728
243.986 6.92796 20.1943
244.544 3.56437 20.2422
-218.53 -34.2528 26.908
-142.146 -69.4109 21.269
-139.63 -70.7398 18.7863
-221.096 -32.0564 27.0479
-157.971 -59.8 33.3578
-205.039 32.4618 39.283
-154.319 -61.3637 32.6019
21.326 7.3559 87.374
-119.076 18.5083 75.2694
-116.406 20.5923 75.2394
25.578 -59.033 64.6453
29.1129 -57.6621 65.6911
-134.56 55.04 -49.9784
-136.852 52.5523 -51.8585
-177.093 57.9175 23.4499
-176.699 59.3903 19.8545
-69.9812 65.2273 -53.757
-62.7594 16.929 -83.5176
-66.3748 16.9203 -83.1765
-66.4445 66.7651 -52.4014
124.464 57.7455 50.1285
121.031 58.3516 50.4546
-132.441 -69.8471 26.7934
-132.815 -68.0011 30.9872
-188.867 35.1183 46.2981
-185.12 37.2885 46.4537
-232.726 13.1738 -30.65
-59.9174 75.1748 40.6597
-61.2349 76.6887 37.4668
-231.927 16.798 -29.6017
-175.271 -46.9572 -42.1659
-178.791 -11.2312 60.8625
-181.799 -8.37603 60.228
-195.822 53.7521 12.6472
-198.376 52.0653 14.6694
-195.137 -6.40422 -55.1457
-196.111 -2.36463 -55.0438
-155.757 25.0449 64.3938
-159.466 22.483 64.2275
-196.21 -54.5515 -7.3986
-193.182 -56.048 -5.79659
-91.2012 75.2136 -32.6891
-87.2209 75.5936 -33.1393
-39.2313 -78.9676 -36.3275
-42.7324 -77.6547 -38.6029
-35.7118 20.5368 -84.6528
-119.25 -59.0781 -50.1273
-116.055 -58.3906 -51.8223
-103.565 -58.912 54.4079
-107.46 -57.2209 55.2809
-176.084 46.9054 -41.8073
26.9046 13.9834 -86.3704
23.7951 15.776 -86.1731
-175.605 44.5876 -44.5032
-89.4456 -39.5926 72.0897
-93.3152 -38.4559 72.1045
-1.70698 -75.0128 -46.0079
2.63205 -75.249 -45.6152
-158.022 -33.1973 -59.8725
-154.736 -36.6327 -58.9123
25.8205 72.8509 48.5296
28.286 70.8388 51.2631
-166.589 38.8086 53.2938
-168.999 36.4343 54.0358
126.646 60.2634 46.3534
125.002 62.2379 44.2428
55.9222 20.2557 83.3717
-158.153 12.6428 67.245
-155.546 9.85606 68.4449
-44.0659 73.405 -46.0214
70.9583 53.0706 -65.6587
-41.3942 75.081 -43.5553
222.064 -27.8283 -30.5324
225.276 -26.0124 -29.2252
-17.5427 79.4987 -37.2327
-20.2795 78.229 -39.672
247.477 -7.06407 13.9944
245.671 -9.07239 16.5073
-182.893 19.8534 57.0486
-181.352 22.6962 56.5891
-55.6504 68.5778 51.5937
-53.3931 70.4457 49.3191
-221.673 26.3869 -32.1186
245.289 -12.7014 14.7129
-123.337 -44.6605 -62.346
-128.466 -46.9008 -59.3614
-126.783 -44.2469 -61.7921
-219.064 -11.0537 41.7914
-206.37 49.8782 -6.48156
-208.055 48.5157 -9.51779
-173.563 -35.1395 53.1142
-196.134 -34.8662 -42.6457
-56.8428 10.6288 85.0614
-99.5679 80.664 4.85428
-149.825 -21.4688 67.3413
-153.215 -21.7149 66.3207
-105.692 79.8177 2.34542
-103.346 80.0421 5.44457
-208.26 -1.82562 -49.3011
-211.702 -0.426927 -47.5053
6.99951 76.5011 -43.4234
8.69487 74.7706 -46.3044
-17.8109 85.9971 -17.597
-21.3384 85.2622 -20.4598
12.461 74.2715 -46.9971
-209.319 34.9071 -34.0774
-209.431 37.4807 -31.1329
-243.67 12.29 -17.9908
-205.998 40.0897 -30.6836
-237.952 16.7289 23.0651
-240.124 13.535 22.3944
-198.672 34.6953 41.3262
-44.0921 -51.861 -69.4004
-47.9372 -52.1795 -68.8474
-64.7645 78.367 -33.0013
-61.6591 79.3578 -31.3189
-198.906 37.691 38.4653
-195.381 39.9838 38.3623
193.194 51.8477 -22.051
191.208 51.6122 -24.5776
-17.4473 72.5398 -49.4439
-16.0642 70.8224 -51.9287
-160.717 -8.6785 67.1292
-158.263 -5.14518 68.1982
-159.18 -12.1852 67.0324
-155.587 -13.9505 67.7175
-181.217 -39.3685 -46.6212
-187.068 -34.8945 -47.3494
234.201 -8.19817 31.0077
231.367 -8.83965 33.3482
-185.724 -37.8056 -45.735
-220.423 -36.3319 -21.8074
-223.2 -33.1948 -23.2994
-74.3465 69.5752 47.1865
-199.252 43.3684 -31.6624
-202.416 40.514 -32.9598
-79.0744 71.9347 42.4719
-75.2442 71.7475 43.6249
-199.863 -47.1006 -25.2002
-196.405 -49.1627 -24.582
-156.238 -38.5643 57.1684
-155.216 -34.6058 59.9737
-162.915 56.2553 -36.4673
-159.769 58.0842 -35.2852
245.94 -16.0778 8.95232
246.756 -13.0534 10.9095
-202.192 25.1229 -45.9094
246.469 -16.6406 5.45932
-222.675 -40.7296 -3.81021
-219.563 -42.6765 -4.53629
-225.913 36.4531 -12.9115
-224.088 36.2119 -16.8756
-228.9 -34.8682 10.6498
-231.376 -33.5773 7.89127
-225.472 -37.7616 9.69474
119.581 74.8249 19.8625
-172.164 -51.1022 -38.7774
115.386 75.6397 19.8138
47.911 12.1605 -85.5283
51.4986 10.7666 -85.4598
-180.221 -22.1766 57.2336
-179.952 52.3198 -32.2801
-165.454 0.846814 66.2704
-168.577 2.82393 65.244
-181.021 -17.4189 58.5553
36.4524 -59.7553 63.3294
37.7866 -57.2086 65.5467
-159.985 -59.9394 -31.9006
-182.767 -21.7983 -56.3842
-184.313 -18.0309 -57.0944
-11.9423 15.0287 -86.6064
-188.59 -54.9978 19.1014
-192.466 -53.1211 19.6701
-145.942 9.33282 -71.058
-143.74 12.1346 -71.1841
-174.375 52.4165 35.6908
-173.435 50.7148 38.5921
-187.183 39.7133 -43.3267
-231.499 33.4951 -7.79794
-229.093 35.9694 -4.95973
-234.904 30.8705 -5.94024
241.404 7.72084 23.4444
239.892 10.8367 24.102
240.609 13.4018 21.8298
-138.879 -61.8302 -39.4925
-138.123 -60.1629 -42.2931
-141.496 -58.2508 -43.5851
-200.351 -41.1647 -33.6907
-218.716 20.1149 -38.506
-52.6923 9.02239 85.5726
-56.6798 -81.1831 27.5679
-60.1942 -81.4608 25.7785
-152.61 56.1697 41.6844
-153.396 58.0514 38.6423
-189.414 -9.89886 -57.0396
-186.066 -8.88017 -58.5365
64.9114 -8.7107 84.5711
67.8936 -7.07779 84.4367
-196.835 -37.2197 40.1901
-200.415 -34.6101 40.3558
-180.668 -48.2456 -37.6844
-174.532 -52.0916 -36.0703
-215.619 -38.5089 23.856
-218.655 -36.4149 23.7603
-178.254 -50.9818 -35.4215
-121.594 47.9267 -60.3067
-71.3694 59.5421 59.7923
26.8711 -68.3013 54.6857
24.8088 -66.5883 56.874
-87.1971 -8.596 -82.0928
-84.0168 -6.29025 -82.7056
-32.5369 85.8176 -15.8026
-36.1516 85.3269 -17.4156
-75.1701 60.0546 58.6996
-117.658 48.9538 -60.4373
67.0943 -10.9695 -84.0984
63.3451 -11.5752 -84.3727
-122.345 44.7203 -62.5421
-76.2286 64.0508 -54.1302
-79.7406 64.2415 -53.278
-210.937 -46.4386 -11.832
-207.911 -47.2774 -14.716
-70.3833 -66.9056 51.5863
-82.4911 61.7423 -55.6666
181.005 57.5726 -20.4506
187.793 54.7425 -20.7269
-57.9855 -57.7695 -63.2063
-60.2477 -59.9497 -60.8739
185.03 56.5057 -18.9617
-52.2189 4.91218 85.942
170.803 -60.94 -21.4145
166.657 -61.8364 -22.7991
-242.16 -11.2308 20.9366
-241.443 -7.71449 23.3971
231.623 25.8609 -22.5154
229.371 25.1802 -25.8604
225.985 27.6875 -26.9258
-235.384 -18.9696 -24.5115
-234.85 -16.6287 -26.7377
-226.068 27.1622 -27.3717
-222.951 28.4612 -29.125
-220.768 31.3758 -28.1507
-250.634 -7.29517 -0.178426
-176.05 45.3055 43.5527
58.6783 51.254 -68.5236
59.7564 48.425 -70.4403
128.11 68.3804 32.5385
131.602 68.3049 30.9524
-176.938 47.6133 40.5466
-181.04 46.7537 39.3112
18.705 -86.418 15.2676
142.035 69.3644 -21.5098
141.098 68.3961 -25.0707
23.2385 -86.1703 15.8921
181.098 -44.0245 42.3149
25.6368 -86.6619 12.3796
-189.026 21.6423 -53.8614
-189.447 17.8963 -55.0426
-212.326 -45.0146 14.0793
-120.85 -47.0042 -61.209
-24.3204 -37.2739 79.2606
52.3217 18.5289 -84.0567
55.8353 16.742 -84.1547
-25.2902 -41.1229 77.2955
-119.137 -6.5386 -77.2238
-115.757 -7.75468 -77.7389
-200.05 16.4713 50.7249
-215.148 -43.2644 14.32
-153.434 33.0346 61.4041
-156.859 31.3543 61.2252
-157.695 28.204 62.4817
-79.9675 -83.4309 0.602989
-63.2868 72.8313 -44.1502
-62.5566 70.7872 -47.4769
-79.8046 -83.3553 -4.02102
-209.642 -18.6819 44.8799
-60.0508 71.4144 46.9307
-205.671 -19.6747 46.6693
-191.283 -46.3886 33.3535
-190.154 -45.0078 35.9361
-195.133 47.3233 29.03
-192.217 -42.6382 37.4503
-97.6932 19.7963 78.6361
-94.1055 20.9874 78.8626
-195.846 -41.8726 35.9831
-247.68 -8.81229 12.4832
188.065 -42.0218 40.5956
184.93 -44.2656 39.9694
-127.198 75.5024 7.90929
-123.572 76.0317 9.67768
48.8741 1.68711 86.3059
130.447 15.5921 -73.6042
-179.714 46.5211 -40.319
198.595 13.1801 52.3604
200.49 9.43354 52.2853
113.354 74.8974 23.691
109.613 75.3482 24.4058
149.563 63.7427 -30.6952
145.734 65.3541 -29.5398
-166.875 -45.6702 -47.4226
129.845 19.3559 -72.8369
-209.805 43.707 -21.0846
-206.944 46.1302 -19.3084
126.47 20.2082 -73.3308
-61.8928 -0.336923 85.293
-59.1856 2.58769 85.4894
-53.8488 -1.9937 85.9361
[...]
POINT_DATA 10490
VECTORS F double
1.27855e-08 3.06202e-08 7.83977e-09
1.32188e-07 9.24165e-08 -4.48331e-08
1.30898e-07 6.91978e-07 3.22947e-07
5.88912e-08 -7.17471e-09 -2.75388e-08
2.8932e-07 2.66184e-07 -1.2611e-08
1.86341e-07 2.00506e-07 -8.30882e-09
8.61761e-08 2.72982e-08 -7.55119e-08
-1.82589e-06 2.10648e-06 1.12157e-07
9.96274e-07 7.64212e-07 1.5995e-07
1.09871e-06 6.554e-07 -4.276e-08
1.2723e-08 7.60797e-08 -4.34463e-08
1.11854e-08 6.00651e-08 -2.19212e-08
9.81029e-08 3.71501e-07 2.00131e-07
-2.26509e-06 3.66225e-06 1.2295e-07
1.4203e-07 1.13858e-07 -9.75608e-10
3.38069e-06 6.05082e-07 -1.43602e-06
4.39926e-06 7.3628e-07 -2.3321e-06
-1.12444e-08 2.1315e-08 1.12326e-08
-1.31791e-08 2.06475e-08 1.30695e-08
-2.9174e-05 6.16943e-06 6.50646e-06
-2.82606e-05 5.25525e-06 4.76692e-06
-3.27724e-06 1.85981e-06 -2.79865e-07
-2.97961e-06 1.34368e-06 -2.32127e-07
3.12625e-08 2.25853e-07 -1.95187e-07
5.80464e-08 2.52707e-07 -2.32152e-07
1.3121e-08 1.66317e-07 9.73558e-08
-2.17267e-09 1.41989e-07 8.52313e-08
-4.36073e-08 1.80566e-07 2.31914e-07
-1.82268e-07 1.38757e-07 1.43934e-07
2.55751e-07 2.16669e-07 -1.97747e-07
5.85367e-07 2.67954e-07 1.14792e-07
3.83934e-07 2.95023e-07 -9.85632e-08
9.88595e-08 2.91278e-06 8.12952e-07
-3.3897e-07 1.47715e-06 4.00573e-07
-1.92971e-06 2.89837e-06 -1.86496e-08
1.32596e-08 2.86513e-08 5.85236e-08
0.000107547 2.25909e-05 4.79227e-05
0.000118319 2.6815e-05 5.63734e-05
3.94941e-08 7.60983e-10 -5.23914e-08
3.37895e-08 -2.49045e-09 -2.37288e-08
6.53695e-07 3.62788e-07 5.03468e-09
2.55678e-08 2.92719e-08 6.12162e-08
3.33148e-07 2.70736e-06 5.17526e-07
-1.43506e-06 3.42914e-06 -3.16173e-07
-2.22198e-08 1.31788e-08 -1.05797e-08
-3.77023e-08 3.40184e-08 1.53014e-08
1.32717e-06 9.02164e-07 -5.40033e-08
1.10392e-06 1.85577e-06 3.59209e-07
-5.42428e-08 1.06812e-07 -7.00407e-08
-4.74121e-08 1.20275e-07 -8.42591e-08
5.49974e-08 1.52447e-07 -5.65422e-08
7.27125e-08 1.6165e-07 -5.3392e-08
9.54655e-07 2.36645e-06 6.94097e-07
9.98338e-07 2.28162e-06 7.89711e-07
-4.15056e-08 1.00717e-07 1.67658e-10
-2.92357e-08 7.57873e-08 3.93832e-09
5.79566e-08 9.83609e-08 1.03213e-07
1.80121e-07 3.46934e-08 -6.70665e-08
-1.86148e-08 1.23499e-08 -1.78117e-08
-1.75802e-08 7.4753e-09 -1.63312e-08
-2.575e-06 3.03925e-06 -2.41351e-07
-2.33896e-06 3.98291e-06 -1.79265e-07
1.15815e-08 8.81048e-08 7.14696e-08
-3.76953e-08 5.20778e-08 9.02503e-08
-1.18334e-08 1.27104e-08 -6.32546e-11
1.4904e-05 6.5202e-06 2.19619e-06
-2.1783e-08 3.7562e-08 2.38985e-08
-5.50775e-07 5.0183e-06 -7.22311e-08
1.45583e-07 3.83354e-06 -1.80283e-07
-5.87854e-07 7.27057e-06 6.0431e-07
-3.53981e-06 5.53563e-06 9.79036e-08
-2.29959e-06 4.14505e-06 -1.43171e-09
-1.23518e-06 2.15202e-06 -2.3851e-07
5.04298e-09 4.5805e-08 5.57593e-08
2.57073e-09 1.28944e-08 9.85046e-10
-3.45181e-09 4.51307e-09 -9.73942e-09
2.95127e-07 4.04029e-07 -3.04521e-07
9.91242e-07 1.56785e-06 -2.02196e-07
4.44915e-07 5.78454e-07 -4.0911e-07
5.32905e-10 2.9646e-08 2.96615e-08
-9.58522e-09 1.0608e-08 1.05411e-08
-2.72422e-09 1.09229e-08 2.10623e-09
1.87058e-08 1.60828e-08 3.90718e-08
2.51346e-08 5.71206e-09 3.92056e-08
1.27699e-08 3.10296e-09 2.3306e-08
1.52522e-08 1.86372e-08 3.73513e-08
3.67933e-08 3.27486e-08 8.00403e-08
2.34e-07 3.10393e-07 -1.06962e-07
3.81039e-08 2.78585e-08 7.45178e-08
4.6013e-08 4.57458e-06 -3.86506e-07
2.18072e-06 2.85357e-06 -2.79305e-07
1.98934e-06 3.34853e-06 -5.39642e-07
-2.47291e-08 1.77539e-07 1.63323e-07
-6.398e-08 2.62001e-07 2.33449e-07
5.3514e-06 3.48121e-06 2.0698e-06
6.98116e-06 2.76256e-06 5.43976e-07
4.13619e-07 3.51603e-07 -4.85969e-07
1.35377e-06 6.15899e-07 -3.6726e-07
3.20925e-05 2.23534e-05 2.20079e-05
2.39706e-06 1.29637e-06 4.22411e-08
2.13937e-06 -3.44697e-09 -2.09718e-07
3.11074e-05 2.50122e-05 2.7039e-05
-9.5357e-07 3.42124e-07 -1.04242e-07
-1.01383e-06 3.60941e-07 -1.19687e-07
2.8117e-09 1.2394e-08 3.40115e-08
-1.44997e-09 1.73109e-08 3.72268e-08
1.04172e-06 5.61802e-07 9.41343e-08
1.0166e-06 7.17246e-07 -7.97434e-08
6.29964e-08 8.68934e-08 -2.12152e-08
5.09356e-05 2.72535e-05 -4.11986e-05
5.11486e-05 2.68652e-05 -4.47541e-05
3.59917e-08 8.95747e-08 1.63067e-08
4.51493e-08 -2.28023e-08 2.41657e-09
4.39381e-07 3.79811e-07 2.28112e-07
2.16929e-07 1.41173e-07 9.98011e-08
7.01241e-07 3.82242e-07 -2.95268e-07
8.45238e-07 4.03304e-07 -3.2009e-08
-7.34557e-09 1.21827e-07 -1.09669e-08
1.31031e-07 1.69069e-07 -6.44192e-08
3.66527e-07 2.52732e-06 -8.7442e-07
1.31049e-06 9.5503e-07 6.40443e-08
7.69358e-09 -1.66393e-09 -1.27107e-08
-1.69819e-09 -3.96116e-10 1.07566e-08
2.89053e-05 8.37679e-06 9.40045e-06
3.03675e-05 9.92313e-06 1.285e-05
-4.44829e-08 5.06425e-08 -1.04203e-07
-3.07038e-08 6.51702e-08 -1.26936e-07
1.9558e-06 1.1609e-05 2.71533e-06
1.28527e-07 1.60479e-07 -2.26568e-07
1.25044e-07 1.86965e-07 -2.44947e-07
3.61082e-08 1.41599e-07 1.61736e-07
8.16979e-08 2.29743e-07 2.57248e-07
2.65929e-06 7.93868e-07 -4.80601e-07
-1.61273e-07 6.76859e-06 1.08969e-06
-2.33745e-06 3.5018e-06 5.62061e-07
6.92359e-07 3.8832e-08 -2.95576e-07
2.23063e-07 5.53372e-07 3.37803e-07
2.84965e-07 8.74529e-07 5.11568e-07
-6.3278e-08 8.21122e-08 -1.3359e-07
-6.22171e-08 5.91247e-08 -9.79735e-08
1.26347e-07 2.43966e-07 -1.76098e-07
2.60243e-08 1.54363e-07 -1.04354e-07
-5.01316e-05 1.98302e-05 -2.65029e-05
-4.40345e-05 2.18195e-05 -2.7177e-05
2.76441e-06 1.24543e-06 1.51017e-07
2.38971e-06 1.44284e-06 -5.78193e-08
-4.95419e-07 1.48725e-07 -2.76374e-08
-1.35821e-06 1.88928e-08 4.43239e-07
-7.7829e-07 5.61481e-07 -7.25044e-08
9.42056e-07 1.06002e-06 7.19612e-08
2.15308e-07 2.74015e-07 2.04469e-08
4.56036e-05 4.4805e-05 6.61184e-05
-5.90805e-06 2.93202e-06 1.58818e-06
4.768e-05 4.41776e-05 7.06056e-05
-2.34905e-09 7.8998e-09 -9.29123e-09
-1.52198e-09 6.20766e-09 -6.9617e-09
6.70219e-05 5.70578e-05 0.000117962
6.22863e-05 5.89248e-05 0.000112296
-6.26929e-10 -4.43643e-10 1.13718e-09
-1.13829e-09 7.3241e-10 2.47819e-09
3.7218e-07 5.59487e-07 -4.86246e-08
3.03348e-07 6.2109e-07 -1.30081e-07
4.0488e-05 3.30903e-05 -3.86365e-05
3.89819e-05 3.39771e-05 -4.33649e-05
2.08252e-07 7.96035e-08 -1.10572e-07
-3.89804e-09 -1.59985e-09 6.57478e-09
2.47702e-07 1.97607e-07 -2.01546e-07
7.85194e-09 1.32844e-07 -1.07039e-07
2.3005e-07 3.65705e-08 -8.39751e-08
-2.41726e-09 1.35164e-07 3.41995e-08
5.86427e-07 3.12483e-07 1.18704e-07
6.27095e-07 3.38109e-07 4.51767e-08
9.15592e-08 1.36916e-07 1.27212e-07
9.31454e-08 4.81222e-09 -5.63833e-08
1.75714e-06 3.88053e-06 -3.41133e-07
3.74959e-05 5.73772e-06 -1.18283e-06
-4.49217e-08 2.6739e-07 7.3009e-08
-7.78599e-08 3.69165e-07 9.885e-08
3.25718e-05 5.52469e-06 -8.30895e-06
3.48644e-05 6.09561e-06 -8.59056e-06
4.91907e-08 9.59865e-08 -2.89945e-08
6.95151e-08 1.9516e-07 -3.96813e-08
-3.80982e-05 2.91869e-05 5.06679e-05
-4.24711e-05 2.80776e-05 4.43622e-05
0.000305598 2.09935e-05 6.47223e-05
0.000258793 2.92035e-05 8.86521e-05
-4.24115e-05 2.16219e-05 3.27932e-05
3.08168e-07 2.31109e-07 4.98475e-09
9.16082e-07 4.96742e-07 -1.56453e-07
1.09203e-07 1.86499e-07 -5.36793e-08
8.21531e-07 6.31968e-07 1.50439e-07
6.96976e-08 2.10424e-07 -6.45856e-08
8.28955e-08 1.77172e-07 1.74e-09
4.22247e-07 -1.96349e-07 4.13368e-07
4.38291e-07 3.17556e-07 -2.71393e-07
4.03444e-07 4.04921e-07 -3.41283e-07
6.79085e-05 2.46715e-05 4.22702e-05
7.21877e-05 2.34968e-05 4.21376e-05
7.1011e-07 -4.83558e-08 4.9695e-07
5.1726e-07 3.01549e-07 8.24053e-09
-7.43318e-08 3.52326e-08 3.10903e-09
-1.04819e-07 5.7204e-08 2.02881e-08
4.95887e-06 4.84952e-05 7.09336e-05
-8.32876e-06 4.48776e-05 6.15213e-05
7.25512e-07 4.20597e-07 2.67033e-07
8.89459e-07 3.50168e-07 2.79127e-07
1.80537e-07 1.5609e-07 8.08619e-08
2.97085e-07 3.70604e-07 1.59917e-07
1.04118e-07 1.01909e-07 -1.35604e-07
1.18413e-07 7.95729e-08 -1.15918e-07
1.64129e-09 9.99056e-09 1.12531e-09
1.25944e-09 9.74618e-09 1.51452e-09
8.98997e-08 6.5502e-08 -9.88418e-08
3.54561e-09 3.33717e-09 -9.94798e-09
-1.31158e-09 5.5369e-09 -6.35199e-09
3.76699e-05 1.58584e-05 -1.61162e-05
8.1946e-07 6.64221e-07 2.7843e-07
8.58848e-07 6.23964e-07 1.21216e-07
3.17184e-05 1.08452e-05 -1.11384e-05
3.58296e-05 1.55849e-05 -1.80656e-05
4.13395e-09 1.45778e-08 -3.12618e-08
2.17416e-10 7.93278e-09 -1.60773e-08
6.29477e-08 2.60296e-07 1.96651e-07
1.93077e-07 2.41803e-07 2.00702e-07
1.56284e-06 1.14319e-06 9.08706e-07
1.94348e-06 1.04653e-06 6.45341e-07
1.985e-09 6.98757e-09 5.87858e-09
7.06595e-10 7.46416e-09 6.97363e-09
3.40192e-07 2.38693e-07 -5.28141e-08
6.43745e-10 3.02312e-09 5.66289e-09
-2.87727e-08 2.02927e-08 -1.10457e-08
-2.18975e-08 1.02236e-08 3.35854e-08
3.22709e-07 2.45594e-07 2.08287e-09
4.19003e-07 3.25049e-07 1.63039e-08
1.20437e-08 -1.68209e-09 2.61883e-08
-2.74126e-09 1.18046e-08 4.03921e-08
1.52748e-09 -5.39579e-09 -1.66706e-08
-2.04789e-06 2.36867e-07 6.17154e-07
5.25184e-08 -1.99447e-08 -2.26272e-09
-2.11589e-06 3.02839e-07 3.52486e-07
6.95538e-07 1.44137e-06 2.52638e-07
6.09329e-07 9.44871e-07 1.63994e-07
1.06922e-07 3.16962e-07 1.64035e-07
1.66723e-06 5.43346e-07 -2.57257e-07
4.52138e-07 2.05245e-07 1.3558e-07
4.63919e-07 2.877e-07 1.34301e-07
1.46239e-07 3.4269e-07 1.57291e-07
-3.56995e-08 1.72825e-07 1.65587e-07
-1.63943e-08 1.8277e-07 1.60676e-07
4.24862e-08 1.21398e-08 -4.88956e-08
7.07357e-08 6.58919e-08 -5.35461e-08
2.31449e-07 1.27014e-07 -1.31589e-07
1.2636e-06 9.66504e-06 1.65583e-06
6.27844e-09 9.5269e-09 3.502e-08
1.38839e-09 8.31868e-09 2.41289e-08
1.13356e-06 7.72773e-07 -1.83543e-07
7.85993e-07 1.16194e-06 3.75782e-09
1.90687e-06 1.23687e-06 -6.7589e-07
1.31714e-06 9.54352e-07 -5.29435e-07
1.12215e-06 1.09904e-06 4.13835e-07
3.70858e-07 3.12154e-07 -7.11993e-09
3.41941e-07 2.77059e-07 7.55716e-08
2.92525e-07 2.29984e-07 -2.21068e-07
-1.13474e-08 1.92293e-08 7.97385e-09
-7.62696e-09 2.40776e-08 -1.53055e-09
-8.03339e-09 2.35823e-08 -3.63778e-09
7.40371e-08 2.98453e-08 -7.86017e-08
1.32081e-08 5.6927e-08 -8.6261e-08
7.50603e-08 1.1584e-07 -1.84651e-07
-1.16713e-08 6.79289e-08 -7.45018e-08
1.35831e-07 2.11698e-07 1.61288e-08
2.85114e-06 5.94712e-06 -4.121e-07
2.31927e-08 1.80029e-08 5.88524e-08
1.68501e-08 1.74422e-08 5.99359e-08
8.77486e-07 1.30349e-07 2.17674e-07
3.69428e-06 1.24112e-06 -6.90608e-08
1.45769e-07 2.58501e-07 -1.04125e-07
1.96502e-07 1.50427e-07 -9.92916e-08
2.078e-07 5.05269e-07 3.25139e-08
3.09353e-08 9.26111e-07 7.45836e-08
1.90113e-08 7.19322e-08 7.80155e-08
1.3791e-08 7.32573e-08 7.12118e-08
2.12836e-08 2.45756e-08 -4.39559e-08
1.86537e-08 4.77458e-09 -1.79458e-08
1.47949e-08 3.49835e-09 2.20186e-08
1.70004e-08 1.24908e-08 3.8296e-08
1.49494e-08 1.87047e-08 -3.61327e-08
8.88906e-06 4.41345e-06 1.31315e-06
2.62128e-05 2.13578e-05 -1.74377e-05
-4.71748e-09 1.99936e-07 2.5e-07
-1.06555e-07 1.61829e-07 1.95161e-07
8.53865e-07 1.66756e-06 -2.85652e-07
7.69373e-07 1.95279e-06 -2.4421e-07
0.000210421 1.9622e-05 5.35138e-05
0.000190167 2.30511e-05 6.4606e-05
2.42875e-05 1.92451e-05 -1.58814e-05
8.74046e-06 6.63955e-06 3.29473e-06
-8.53082e-07 7.07252e-07 -1.75577e-07
-8.76338e-07 5.66453e-07 -1.58263e-07
5.65404e-06 4.37657e-06 1.77529e-06
2.82374e-05 2.1369e-05 2.04167e-05
2.53095e-05 1.67514e-05 1.55607e-05
1.02177e-09 -5.69109e-09 2.01053e-08
-2.13957e-08 1.60579e-08 -1.45805e-08
-1.32388e-07 6.02619e-08 5.60438e-08
2.43097e-05 1.6625e-05 1.4029e-05
-1.97766e-07 5.82251e-08 -5.03883e-08
-1.55795e-07 7.3926e-08 2.24304e-08
-4.63205e-07 2.81768e-07 -2.05506e-07
-2.86372e-07 1.59187e-07 -1.2207e-07
-1.94212e-07 7.4323e-08 -1.05428e-08
8.59502e-07 5.45912e-06 -2.48093e-07
9.35351e-09 5.37561e-09 -6.16321e-09
9.71312e-09 7.12069e-09 -1.06194e-08
-1.50579e-08 3.38959e-08 -3.13969e-09
6.44564e-09 2.40766e-08 1.60833e-08
-5.18815e-09 1.37108e-08 9.21437e-09
-1.49427e-08 2.78182e-08 1.08601e-08
-1.84158e-08 2.41403e-08 5.89964e-09
-3.28768e-08 5.7825e-08 -6.09948e-09
4.58542e-08 3.56244e-09 -5.15248e-08
2.84703e-07 3.33442e-07 4.30039e-08
2.88481e-07 1.60991e-07 -1.13045e-07
2.09375e-07 1.98659e-07 2.03863e-08
-2.35175e-08 9.92653e-08 -1.4431e-08
9.74557e-07 4.99961e-07 -3.778e-08
-3.75096e-06 3.37906e-06 2.1342e-06
-2.46891e-06 3.47673e-06 2.1337e-06
-1.00978e-06 6.55237e-08 3.49047e-07
-8.64892e-07 -5.34532e-08 5.68174e-07
1.58105e-06 7.89664e-07 -8.25895e-08
1.43832e-06 2.61992e-07 4.99376e-07
-1.40981e-08 8.80008e-09 5.19273e-08
-5.05144e-07 -2.72998e-08 -4.96415e-07
-8.96957e-07 6.10534e-08 -4.51477e-07
-4.46746e-09 3.31784e-10 2.59623e-09
-1.02759e-08 6.24385e-09 1.18799e-08
-1.06771e-08 -9.47168e-10 -3.92607e-09
1.82583e-07 5.31469e-07 1.35101e-07
1.34343e-07 5.17746e-07 1.11726e-07
-2.75501e-08 2.21473e-08 1.9945e-08
3.53918e-07 2.49228e-07 -2.7694e-07
-7.03039e-08 2.39146e-07 1.09821e-07
-1.58391e-06 2.11819e-06 3.46212e-07
-1.506e-06 2.03978e-06 2.83468e-07
-1.53647e-07 2.16919e-07 1.0925e-07
-1.15378e-07 1.10785e-06 -7.20113e-08
-5.49513e-08 1.16229e-06 -1.05924e-07
3.16759e-07 6.08386e-07 -4.46085e-08
-2.65075e-08 2.6802e-08 3.22176e-08
1.58674e-06 2.88233e-06 -1.06524e-06
1.89304e-06 1.94445e-06 -4.01996e-07
-2.40328e-07 2.15525e-06 -1.04713e-06
-3.19557e-08 3.66144e-09 -1.2184e-08
4.06517e-05 3.02611e-05 4.27851e-05
3.05762e-05 2.91566e-05 3.85393e-05
6.54302e-09 -5.6149e-11 -1.47286e-08
1.16437e-09 7.85979e-08 3.33838e-08
4.6319e-05 2.83212e-05 -3.58401e-05
1.31153e-08 1.33346e-07 6.32926e-08
2.31367e-08 2.75272e-08 5.4531e-08
3.90174e-08 2.34923e-08 5.46996e-08
3.65987e-07 3.89603e-07 -3.33923e-07
2.50388e-08 2.38128e-08 4.28457e-08
2.5621e-06 6.75017e-06 -1.30963e-06
3.96391e-06 3.27765e-06 -2.93164e-07
1.18362e-08 6.61291e-08 8.484e-08
-1.35301e-08 7.46735e-08 1.98492e-08
-2.37759e-08 1.2999e-08 2.69399e-08
-1.21769e-08 3.65445e-10 7.30189e-09
7.58976e-06 1.62889e-06 -6.05547e-07
9.66685e-06 2.42123e-06 -3.90993e-06
-2.38936e-06 1.859e-06 1.29314e-07
-1.58892e-07 3.84803e-07 4.70401e-08
2.65806e-06 1.04673e-06 -2.4279e-07
-5.53664e-08 7.62437e-08 6.51751e-09
-2.24658e-08 8.90773e-08 -5.52543e-09
-1.65111e-06 9.27621e-08 6.73941e-07
-1.93328e-06 5.29966e-07 -5.73123e-07
-9.52109e-07 2.31263e-07 -8.77273e-08
-1.11932e-06 1.35702e-07 -3.7585e-07
-7.61801e-08 1.02061e-07 -6.54705e-08
-4.25616e-07 3.73667e-07 6.40784e-09
5.13183e-07 1.69219e-07 -2.74412e-07
5.11902e-07 1.88643e-07 -2.21026e-07
-4.46588e-07 3.85112e-07 1.18312e-08
6.46288e-07 4.94723e-06 7.69573e-08
1.81427e-06 4.14302e-06 2.83704e-08
1.20854e-06 3.5034e-06 1.73991e-07
1.28863e-08 1.53928e-08 5.45931e-08
8.29857e-06 1.78143e-06 3.92112e-07
9.31877e-06 2.00772e-06 -1.50621e-06
-1.49956e-06 6.2517e-06 -1.08684e-06
1.2345e-08 -2.04175e-09 1.46382e-08
1.97471e-06 4.00669e-06 7.25528e-08
2.89962e-06 9.76635e-06 5.38372e-06
5.07732e-06 6.00288e-06 2.57e-06
1.08407e-05 9.49703e-06 4.46832e-06
9.79726e-08 4.07227e-07 6.5752e-08
6.03324e-08 5.37965e-07 4.56672e-08
-2.76085e-07 1.41488e-06 1.60288e-07
-3.8842e-08 7.61463e-07 8.83704e-08
7.00762e-07 3.04972e-07 1.57322e-07
3.31858e-07 5.29678e-07 9.95804e-08
1.97573e-06 6.67522e-07 -3.18572e-08
2.72612e-06 1.1709e-06 4.78274e-07
-3.4503e-08 6.67609e-10 2.60852e-08
-2.93355e-08 -2.58265e-09 1.27728e-08
7.52057e-08 1.97708e-08 -8.40135e-08
5.89026e-08 9.29177e-09 -5.11127e-08
-2.1172e-08 6.72148e-08 1.0104e-07
1.31166e-08 5.52312e-08 1.07897e-07
-1.59562e-08 5.69649e-08 9.44748e-08
2.68473e-07 1.02139e-07 2.06111e-07
4.07415e-07 2.51808e-07 -7.64985e-08
5.82294e-07 2.74785e-07 1.44208e-07
2.34437e-08 7.78243e-08 -8.4477e-08
1.27258e-08 7.93401e-08 -8.07015e-08
-5.36916e-08 5.92942e-07 -3.41437e-07
2.38371e-08 3.39754e-07 -2.00354e-07
-2.70026e-07 2.91327e-06 -5.33227e-07
-8.76201e-07 2.03226e-06 -3.74685e-07
-1.52809e-08 6.55479e-08 -5.78319e-08
2.10247e-07 -1.34174e-08 -3.92085e-08
-1.91861e-08 5.15292e-09 1.11894e-08
1.33774e-08 3.46542e-08 -5.30999e-08
-1.65893e-06 3.75258e-06 -1.63073e-07
-8.1728e-08 3.68482e-07 -2.73611e-07
-1.44507e-07 3.18036e-07 -2.24177e-07
2.24039e-05 3.47701e-05 3.39345e-05
1.74075e-06 9.13766e-07 1.37156e-06
9.78463e-05 8.71672e-06 3.62253e-06
0.000111572 9.37714e-06 -1.17888e-05
8.59898e-05 9.71009e-06 -2.338e-05
0.000105959 9.26464e-06 -7.17535e-06
1.87088e-06 8.85862e-07 1.39851e-06
2.15583e-05 2.7323e-05 2.57681e-05
2.09197e-05 2.69956e-05 2.33454e-05
4.63991e-08 3.04464e-08 -8.38698e-08
-2.5647e-08 5.94652e-09 -3.10376e-08
-1.32623e-08 4.90628e-09 -5.3134e-08
5.21487e-08 1.93641e-08 -6.9669e-08
2.33333e-08 9.2633e-09 -3.45135e-08
1.42596e-07 2.53609e-07 9.09356e-08
1.01588e-07 3.82395e-07 2.33119e-07
-6.21356e-07 8.48379e-08 2.21831e-07
-2.39791e-05 9.35778e-06 -8.9358e-06
-2.40138e-05 1.06811e-05 -1.13028e-05
-8.97494e-07 7.62161e-07 -2.11782e-07
2.18516e-07 2.08713e-07 -1.69822e-07
3.54194e-07 3.92028e-07 1.04872e-07
1.91057e-07 5.35761e-07 -2.82754e-07
1.79482e-07 2.20904e-07 -1.4801e-07
1.19934e-07 4.45957e-09 7.1617e-08
9.81138e-08 5.25706e-08 1.26328e-07
6.10597e-08 3.14187e-08 8.09525e-08
1.22785e-06 1.6401e-06 -1.13146e-07
1.35547e-06 1.85845e-06 -1.1568e-07
-5.31776e-05 2.05631e-05 -3.02667e-05
-9.69127e-08 2.0956e-07 5.12879e-09
3.11908e-08 5.54859e-09 1.94926e-08
-2.88958e-08 6.44194e-08 1.16484e-07
6.51556e-07 1.98891e-06 -2.11614e-07
6.72818e-07 1.35444e-06 -1.69684e-07
-5.48183e-08 9.43135e-08 -1.42753e-09
1.21897e-07 1.93062e-07 3.3479e-09
-1.09206e-07 1.67192e-07 -1.18323e-08
-1.80008e-05 1.52128e-06 -2.8591e-07
4.01546e-09 1.07663e-07 -5.17154e-08
-2.29261e-09 9.15701e-08 -4.51884e-08
-8.97462e-06 -2.85911e-07 -1.95386e-06
8.06829e-07 7.65931e-07 -2.79995e-07
-1.42292e-05 3.76814e-06 3.49245e-06
-1.15634e-08 1.053e-07 2.7753e-10
1.73932e-06 6.31242e-07 1.60721e-07
1.90904e-06 5.06477e-07 4.89337e-07
2.65602e-09 6.95851e-08 -3.73259e-08
-1.01878e-08 8.12134e-08 2.3132e-08
1.15729e-07 2.09497e-07 -1.28087e-07
1.81288e-08 -1.02997e-08 -1.88176e-08
1.78929e-08 8.86893e-10 -3.82353e-08
4.49888e-07 4.7978e-07 -1.36345e-07
5.65105e-07 4.02517e-07 6.50197e-08
2.81226e-06 2.2699e-06 9.27059e-07
3.48986e-05 3.25849e-05 4.16969e-05
2.69077e-05 3.23386e-05 3.85817e-05
1.65978e-08 8.12176e-10 -4.38578e-11
-1.46677e-08 3.73016e-10 -1.74341e-08
2.47253e-05 3.01926e-05 3.38115e-05
3.60026e-07 9.85094e-08 1.53753e-07
1.77984e-07 1.46943e-07 9.75693e-09
-2.30344e-08 5.69377e-08 -2.97953e-09
-9.78854e-08 1.82699e-07 1.64237e-07
-8.99505e-08 2.0032e-07 1.64732e-07
-5.57114e-07 3.29571e-06 2.72768e-07
-8.90056e-08 3.87471e-08 3.58251e-08
-2.73914e-08 1.19028e-07 9.24514e-08
-5.66849e-05 3.66833e-05 -5.83081e-05
-4.24927e-05 3.11962e-05 -4.57011e-05
-7.06802e-07 3.30984e-06 2.86643e-07
1.04155e-06 1.23118e-06 -2.54792e-07
-2.65734e-07 2.78244e-06 3.64764e-07
-2.76401e-09 -2.99714e-09 -2.52943e-08
1.40912e-07 7.36597e-07 -2.30432e-07
1.72745e-06 3.69365e-05 -3.5816e-05
2.99761e-07 4.16732e-07 -5.56007e-08
9.53201e-07 6.51791e-07 6.78232e-07
6.18214e-08 1.08182e-07 -5.55763e-08
-3.38261e-08 4.84955e-08 2.91434e-08
8.76546e-09 2.26165e-09 -4.32898e-09
-3.89448e-09 3.33313e-09 -2.10679e-08
-1.58923e-05 2.137e-05 -2.09648e-05
-3.1288e-08 6.40792e-08 9.81253e-08
1.35321e-06 5.053e-07 -1.99517e-07
-5.23479e-09 -2.59313e-09 1.69247e-09
6.33049e-08 1.28347e-07 1.39321e-07
2.08555e-08 1.2431e-09 2.1852e-08
1.68526e-05 2.57865e-05 -1.86572e-05
2.68166e-07 8.57371e-08 -1.04534e-07
1.36293e-05 2.68156e-05 -2.1936e-05
0.000420734 9.25105e-06 -8.87886e-05
0.000408731 1.32589e-05 -8.81706e-05
1.35699e-08 9.75782e-08 9.24143e-08
0.000100707 6.70138e-05 -0.000179266
1.11865e-08 1.10076e-07 8.86603e-08
-5.16891e-08 6.70608e-08 1.26808e-08
-6.0264e-08 4.87952e-08 -5.85462e-09
4.06868e-08 1.51907e-07 1.27064e-07
1.0927e-06 1.12534e-06 -3.58134e-07
1.43049e-08 1.13793e-09 -1.06684e-08
3.49026e-07 2.77131e-07 -1.02359e-07
3.33079e-05 3.76551e-05 -4.07296e-05
3.52265e-07 1.93941e-07 7.21419e-08
3.55565e-07 1.55024e-07 1.37019e-07
3.64704e-07 1.85836e-07 1.15535e-07
3.27021e-05 3.50214e-05 4.9676e-05
-8.89776e-08 4.7703e-08 -1.81525e-08
-7.80839e-08 4.09432e-08 -4.6373e-08
-1.59626e-07 9.98076e-08 -1.25304e-08
-2.86022e-07 2.478e-07 -6.80844e-08
3.79377e-05 3.98596e-05 5.51859e-05
7.58503e-06 2.99555e-06 -5.24893e-07
2.23137e-06 5.18582e-06 -2.71575e-06
2.30402e-06 4.69569e-06 -2.28693e-06
0.000270488 1.28897e-05 -4.40007e-05
0.000255691 1.44366e-05 -4.38792e-05