# vtk DataFile Version 2.0
S, Created by Mohamad Ibrahim Cheikh
ASCII
DATASET UNSTRUCTURED_GRID
POINTS 10490 double
-223.577 20.3388 -34.7913
-223.73 23.2847 -32.7648
-130.492 -29.3114 69.2827
-194.384 -37.8826 -41.0227
-207.473 29.5063 40.0418
-235.878 27.3972 13.4742
-191.275 -39.712 -41.0819
14.4141 -3.1429 87.7991
-191.074 39.2187 -41.6661
-193.414 36.9296 -42.4286
-251.147 3.21211 -3.38066
-251.007 5.46222 -0.714841
-204.327 29.2979 -42.1216
18.6142 -1.53251 87.7453
-201.23 30.3632 -43.1793
-151.342 68.7377 -14.6604
-148.554 69.9473 -12.2292
241.381 21.7605 -11.7087
240.378 24.3445 -8.78231
39.6838 72.8936 -47.3045
43.5159 72.1888 -47.968
45.4423 -3.20906 -86.4921
49.3021 -1.51792 -86.2792
-145.563 -45.4955 -55.4981
-142.059 -46.9201 -55.4236
-191.797 -27.365 49.914
-189.472 -30.0432 49.4591
-64.3396 -67.8365 51.3361
-66.4801 -66.0166 53.3359
-121.229 -41.6803 -64.8649
-205.494 44.6059 24.1735
-208.434 41.8699 25.9217
-64.8763 -22.6029 81.9622
-61.241 -23.9358 81.9262
44.3218 4.17254 86.5222
-201.398 -44.9176 27.5766
-52.6122 82.5321 -24.3629
-49.5175 82.1814 -26.2683
-109.541 -78.4117 -11.2484
-105.515 -79.2425 -10.0782
-195.499 42.6384 35.3085
-200.947 -43.0032 30.8388
-54.4288 -15.3364 84.5346
3.52341 8.26114 87.6027
226.254 36.0724 -13.2453
223.494 37.2788 -15.4582
-147.001 22.4191 -67.7921
-143.838 23.6774 -68.1935
-167.021 -43.0239 -49.7756
-163.503 -43.4788 -50.7999
-215.267 -7.15872 -44.9373
-215.167 -3.16289 -45.4518
-105.638 -17.6262 77.8915
-104.101 -21.1624 77.2617
-247.96 -12.5231 7.72451
-247.222 -12.2246 10.5722
-226.224 -18.8466 33.5134
-129.025 -40.8339 -63.5487
238.447 4.07555 -27.6834
236.191 2.11803 -30.1593
30.6904 -3.74276 -87.2621
26.7176 -2.01221 -87.4789
-224.961 -22.5402 32.2502
-47.6605 -75.872 41.3441
-235.553 -26.7706 15.3058
-110.279 51.1825 -60.2943
-237.919 -25.2892 13.1988
-16.8403 -1.48485 -87.7899
-20.0202 -4.02403 -87.6284
25.3071 7.5082 -87.2308
27.3775 3.69492 -87.399
25.4581 1.70324 -87.5314
45.9752 -6.33006 -86.2853
-242.159 -16.975 16.6258
249.587 -5.36902 -9.40943
249.11 -2.30252 -11.8807
-169.142 48.1657 43.8344
30.4547 -13.4859 -86.3051
-165.516 47.9361 45.7392
-244.371 -14.4431 14.9729
243.986 6.92797 20.1943
244.544 3.56438 20.2422
-218.53 -34.2528 26.908
-142.146 -69.4109 21.2691
-139.63 -70.7398 18.7863
-221.096 -32.0564 27.0479
-157.971 -59.8 33.3578
-205.038 32.4621 39.2829
-154.319 -61.3637 32.602
21.326 7.36049 87.3736
-119.074 18.5112 75.2691
-116.404 20.5956 75.2389
25.578 -59.0328 64.6454
29.1129 -57.6618 65.6913
-134.554 55.0435 -49.9763
-136.846 52.5551 -51.8579
-177.093 57.9178 23.4494
-176.698 59.3909 19.8542
-69.9494 65.2495 -53.7351
-62.757 16.9303 -83.5175
-66.3727 16.9203 -83.1767
-66.4137 66.79 -52.3745
124.463 57.7458 50.1284
121.03 58.352 50.4545
-132.441 -69.8471 26.7934
-132.815 -68.0011 30.9872
-188.866 35.1189 46.2982
-185.119 37.2892 46.4536
-232.726 13.1739 -30.65
-59.8667 75.2018 40.6188
-61.1839 76.7154 37.4224
-231.927 16.7981 -29.6017
-175.271 -46.9572 -42.1659
-178.79 -11.2308 60.8627
-181.799 -8.37588 60.2281
-195.821 53.7525 12.6469
-198.375 52.0657 14.6694
-195.137 -6.4041 -55.1457
-196.11 -2.36446 -55.0438
-155.756 25.0475 64.393
-159.465 22.484 64.2275
-196.21 -54.5515 -7.39861
-193.182 -56.048 -5.79657
-91.1724 75.2219 -32.6798
-87.1906 75.6035 -33.1265
-39.2314 -78.9676 -36.3276
-42.7324 -77.6546 -38.603
-35.7099 20.5483 -84.6501
-119.25 -59.078 -50.1275
-116.055 -58.3904 -51.8226
-103.565 -58.9118 54.408
-107.46 -57.2207 55.2811
-176.082 46.9062 -41.8078
26.9044 13.9902 -86.3693
23.7927 15.7795 -86.1725
-175.605 44.5876 -44.5035
-89.4454 -39.592 72.09
-93.315 -38.455 72.105
-1.70704 -75.0127 -46.008
2.63199 -75.2489 -45.6153
-158.022 -33.197 -59.8727
-154.736 -36.6325 -58.9124
25.7707 72.8706 48.5032
28.2423 70.8605 51.236
-166.586 38.8098 53.294
-168.996 36.4357 54.0358
126.645 60.2636 46.3534
125 62.2379 44.2432
55.9214 20.2562 83.3716
-158.152 12.6439 67.2451
-155.546 9.85633 68.4449
-44.0204 73.4493 -45.956
70.9524 53.0736 -65.6571
-41.3464 75.1246 -43.4856
222.064 -27.8283 -30.5324
225.276 -26.0124 -29.2252
-17.4732 79.5551 -37.1162
-20.2153 78.2874 -39.5607
247.477 -7.06407 13.9944
245.671 -9.07239 16.5073
-182.893 19.8539 57.0486
-181.352 22.6968 56.589
-55.6099 68.6109 51.5551
-53.3539 70.4796 49.2759
-221.673 26.387 -32.1187
245.289 -12.7014 14.7129
-123.337 -44.6603 -62.3462
-128.466 -46.9006 -59.3615
-126.783 -44.2469 -61.7922
-219.064 -11.0536 41.7914
-206.37 49.8785 -6.48144
-208.055 48.516 -9.51774
-173.563 -35.1394 53.1144
-196.133 -34.8662 -42.6457
-56.841 10.6327 85.0611
-99.5308 80.6697 4.85304
-149.825 -21.4685 67.3413
-153.215 -21.7145 66.3207
-105.66 79.8231 2.33727
-103.312 80.0482 5.43616
-208.26 -1.82553 -49.3011
-211.702 -0.426733 -47.5054
6.96353 76.5305 -43.3722
8.65335 74.7987 -46.26
-17.5104 86.0174 -17.5344
-21.0827 85.2903 -20.375
12.4195 74.2932 -46.9642
-209.319 34.9074 -34.0774
-209.43 37.4812 -31.133
-243.669 12.2902 -17.9909
-205.997 40.0903 -30.6834
-237.952 16.7291 23.065
-240.124 13.5352 22.3944
-198.671 34.6951 41.3266
-44.0917 -51.8606 -69.4007
-47.9368 -52.1791 -68.8477
-64.697 78.3914 -32.9595
-61.5874 79.381 -31.2773
-198.906 37.691 38.4658
-195.381 39.9841 38.3623
193.194 51.8478 -22.051
191.208 51.6123 -24.5776
-17.4418 72.5881 -49.3733
-16.0722 70.867 -51.8675
-160.716 -8.67808 67.1295
-158.262 -5.14483 68.1985
-159.18 -12.1851 67.0325
-155.587 -13.9502 67.7176
-181.217 -39.3684 -46.6213
-187.068 -34.8944 -47.3496
234.201 -8.19816 31.0077
231.367 -8.83964 33.3482
-185.724 -37.8055 -45.7351
-220.423 -36.3319 -21.8074
-223.2 -33.1948 -23.2994
-74.3091 69.591 47.1704
-199.252 43.3691 -31.6621
-202.416 40.5146 -32.9597
-79.0429 71.9455 42.4608
-75.2086 71.7631 43.6068
-199.863 -47.1006 -25.2002
-196.405 -49.1627 -24.582
-156.238 -38.5641 57.1686
-155.216 -34.6055 59.9739
-162.914 56.2565 -36.4664
-159.767 58.0853 -35.2845
245.94 -16.0778 8.95232
246.756 -13.0534 10.9095
-202.192 25.1231 -45.9095
246.469 -16.6405 5.45933
-222.675 -40.7296 -3.81022
-219.563 -42.6765 -4.53626
-225.913 36.4534 -12.9115
-224.088 36.2123 -16.8756
-228.9 -34.8682 10.6498
-231.376 -33.5773 7.89131
-225.472 -37.7616 9.69473
119.579 74.8252 19.8632
-172.164 -51.1022 -38.7774
115.384 75.64 19.8141
47.9117 12.162 -85.528
51.4992 10.7675 -85.4597
-180.221 -22.1763 57.2338
-179.95 52.3203 -32.2803
-165.453 0.84702 66.2705
-168.576 2.82422 65.2441
-181.02 -17.4185 58.5555
36.4524 -59.7552 63.3296
37.7866 -57.2084 65.5469
-159.985 -59.9394 -31.9006
-182.767 -21.7982 -56.3843
-184.313 -18.0308 -57.0945
-11.9411 15.0383 -86.6048
-188.59 -54.9978 19.1014
-192.466 -53.1211 19.6701
-145.941 9.33359 -71.0582
-143.74 12.1357 -71.1841
-174.373 52.4177 35.6902
-173.433 50.7157 38.5916
-187.182 39.7144 -43.3263
-231.499 33.4954 -7.79795
-229.093 35.9696 -4.95965
-234.904 30.8707 -5.94046
241.404 7.72086 23.4444
239.892 10.8368 24.102
240.609 13.4018 21.8298
-138.879 -61.8302 -39.4926
-138.123 -60.1628 -42.2932
-141.496 -58.2507 -43.5853
-200.351 -41.1646 -33.6908
-218.716 20.1151 -38.5059
-52.6895 9.02834 85.5722
-56.6797 -81.183 27.568
-60.1941 -81.4608 25.7785
-152.609 56.1699 41.6846
-153.392 58.0526 38.6422
-189.413 -9.8986 -57.0397
-186.066 -8.88002 -58.5366
64.9116 -8.71019 84.5711
67.8936 -7.07686 84.4368
-196.835 -37.2197 40.1902
-200.415 -34.61 40.3559
-180.668 -48.2456 -37.6844
-174.532 -52.0916 -36.0703
-215.619 -38.5089 23.856
-218.655 -36.4149 23.7603
-178.254 -50.9818 -35.4215
-121.585 47.9311 -60.3054
-71.3431 59.5634 59.775
26.8711 -68.3011 54.686
24.8087 -66.5881 56.8742
-87.1963 -8.59434 -82.0931
-84.016 -6.2883 -82.7059
-32.3292 85.8369 -15.7502
-35.9638 85.3495 -17.3524
-75.1458 60.0737 58.6839
-117.65 48.9604 -60.434
67.0934 -10.9688 -84.0985
63.3442 -11.5746 -84.3728
-122.339 44.7246 -62.5404
-76.2006 64.0719 -54.11
-79.7154 64.2581 -53.2626
-210.937 -46.4386 -11.832
-207.911 -47.2774 -14.7161
-70.3834 -66.9055 51.5863
-82.467 61.7588 -55.6527
181.005 57.5727 -20.4506
187.793 54.7425 -20.7269
-57.986 -57.7692 -63.2065
-60.248 -59.9496 -60.874
185.03 56.5058 -18.9617
-52.218 4.91765 85.9417
170.803 -60.94 -21.4145
166.657 -61.8363 -22.7991
-242.16 -11.2308 20.9366
-241.443 -7.71447 23.3971
231.623 25.861 -22.5154
229.371 25.1802 -25.8604
225.985 27.6875 -26.9258
-235.384 -18.9696 -24.5116
-234.85 -16.6287 -26.7378
-226.067 27.1625 -27.3717
-222.951 28.4614 -29.1251
-220.768 31.376 -28.1507
-250.634 -7.29507 -0.178441
-176.049 45.306 43.5527
58.6746 51.2574 -68.5214
59.754 48.4285 -70.4382
128.109 68.3805 32.5389
131.601 68.3048 30.953
-176.937 47.6141 40.5465
-181.039 46.754 39.3117
18.705 -86.418 15.2676
142.035 69.3644 -21.5103
141.097 68.3962 -25.0712
23.2385 -86.1703 15.8921
181.098 -44.0245 42.3149
25.6368 -86.6619 12.3796
-189.026 21.6428 -53.8613
-189.447 17.8968 -55.0425
-212.326 -45.0146 14.0794
-120.849 -47.004 -61.2093
-24.3204 -37.2737 79.2607
52.3201 18.531 -84.0563
55.8338 16.7441 -84.1544
-25.2904 -41.1227 77.2956
-119.137 -6.53749 -77.2239
-115.757 -7.75352 -77.739
-200.05 16.4719 50.7249
-215.148 -43.2643 14.32
-153.432 33.0375 61.403
-156.857 31.3562 61.2248
-157.696 28.2061 62.4806
-79.9675 -83.4309 0.602977
-63.2463 72.8613 -44.1078
-62.5261 70.8161 -47.4387
-79.8045 -83.3553 -4.02103
-209.642 -18.6818 44.88
-60.0047 71.4425 46.895
-205.671 -19.6745 46.6694
-191.283 -46.3886 33.3535
-190.154 -45.0078 35.9361
-195.132 47.3237 29.0297
-192.216 -42.6382 37.4503
-97.6906 19.803 78.6348
-94.1016 20.9907 78.8623
-195.846 -41.8725 35.9832
-247.68 -8.81221 12.4832
188.065 -42.0218 40.5956
184.93 -44.2656 39.9694
-127.19 75.504 7.9087
-123.562 76.0341 9.67379
48.8717 1.68898 86.306
130.446 15.5925 -73.6041
-179.712 46.5221 -40.3192
198.595 13.1802 52.3604
200.49 9.43362 52.2853
113.352 74.8975 23.6916
109.611 75.3487 24.4053
149.562 63.743 -30.6953
145.733 65.3543 -29.5402
-166.875 -45.6701 -47.4226
129.844 19.3563 -72.8369
-209.804 43.7072 -21.0849
-206.944 46.1304 -19.3086
126.469 20.2086 -73.3308
-61.8921 -0.331972 85.293
-59.1838 2.59184 85.4894
-53.8476 -1.99018 85.9363
[...]
POINT_DATA 10490
VECTORS F double
1.27827e-08 3.05489e-08 7.80134e-09
1.31665e-07 9.20811e-08 -4.46348e-08
1.31901e-07 6.94041e-07 3.24042e-07
5.87726e-08 -7.20881e-09 -2.74392e-08
2.89046e-07 2.65362e-07 -1.21819e-08
1.85883e-07 1.99922e-07 -8.10715e-09
8.59799e-08 2.71668e-08 -7.52715e-08
-1.83708e-06 2.135e-06 1.13347e-07
9.91937e-07 7.60189e-07 1.58615e-07
1.09286e-06 6.52494e-07 -4.20099e-08
1.26775e-08 7.58527e-08 -4.3252e-08
1.11427e-08 5.9847e-08 -2.17545e-08
9.82212e-08 3.69892e-07 1.98945e-07
-2.27821e-06 3.6997e-06 1.23784e-07
1.41877e-07 1.14204e-07 -6.43803e-10
3.3805e-06 6.11497e-07 -1.40544e-06
4.39519e-06 7.41057e-07 -2.29802e-06
-1.11392e-08 2.11006e-08 1.11005e-08
-1.30584e-08 2.04489e-08 1.29233e-08
-2.89572e-05 6.41399e-06 6.90951e-06
-2.80477e-05 5.47351e-06 5.12215e-06
-3.2677e-06 1.85956e-06 -2.79186e-07
-2.97122e-06 1.3465e-06 -2.31555e-07
3.11971e-08 2.25144e-07 -1.94584e-07
5.79355e-08 2.51993e-07 -2.31511e-07
1.33348e-08 1.66396e-07 9.74989e-08
-1.95172e-09 1.42058e-07 8.53749e-08
-4.37709e-08 1.81422e-07 2.33019e-07
-1.82884e-07 1.39506e-07 1.44764e-07
2.55133e-07 2.16065e-07 -1.97216e-07
5.83478e-07 2.66891e-07 1.14781e-07
3.83073e-07 2.93765e-07 -9.73828e-08
1.02585e-07 2.9235e-06 8.16159e-07
-3.34133e-07 1.49066e-06 4.04935e-07
-1.9457e-06 2.9296e-06 -1.92564e-08
1.33625e-08 2.86523e-08 5.86169e-08
0.000105618 2.19238e-05 4.63438e-05
0.000116059 2.60187e-05 5.46144e-05
3.94671e-08 7.39687e-10 -5.22144e-08
3.37841e-08 -2.50323e-09 -2.36193e-08
6.52538e-07 3.61642e-07 5.62795e-09
2.56975e-08 2.92676e-08 6.13126e-08
3.3163e-07 2.72262e-06 5.20083e-07
-1.44521e-06 3.46503e-06 -3.19647e-07
-2.20934e-08 1.3112e-08 -1.04937e-08
-3.74669e-08 3.37817e-08 1.51482e-08
1.32346e-06 8.99823e-07 -5.3776e-08
1.1053e-06 1.83663e-06 3.52263e-07
-5.40567e-08 1.0649e-07 -6.98389e-08
-4.72463e-08 1.19901e-07 -8.40039e-08
5.48302e-08 1.51884e-07 -5.63541e-08
7.24439e-08 1.61059e-07 -5.31951e-08
9.57395e-07 2.36859e-06 6.94958e-07
1.00322e-06 2.2841e-06 7.91118e-07
-4.13948e-08 1.00492e-07 2.37639e-10
-2.91482e-08 7.56283e-08 3.99983e-09
5.80585e-08 9.82629e-08 1.03241e-07
1.79796e-07 3.46763e-08 -6.69747e-08
-1.84499e-08 1.22193e-08 -1.76568e-08
-1.74401e-08 7.4091e-09 -1.62011e-08
-2.56675e-06 3.03478e-06 -2.40687e-07
-2.33282e-06 3.97424e-06 -1.78646e-07
1.17197e-08 8.80131e-08 7.15224e-08
-3.78016e-08 5.23692e-08 9.07703e-08
-1.17721e-08 1.26869e-08 9.70189e-12
1.46405e-05 6.49766e-06 2.2373e-06
-2.17156e-08 3.7511e-08 2.39501e-08
-5.38449e-07 4.99979e-06 -7.19204e-08
1.47233e-07 3.82906e-06 -1.79955e-07
-6.01482e-07 7.22597e-06 6.00596e-07
-3.51706e-06 5.51327e-06 9.81992e-08
-2.29119e-06 4.13761e-06 -1.07355e-09
-1.23646e-06 2.15101e-06 -2.38462e-07
5.08892e-09 4.57312e-08 5.57687e-08
2.53936e-09 1.27357e-08 9.72079e-10
-3.41771e-09 4.4479e-09 -9.63807e-09
3.00622e-07 4.02063e-07 -2.99771e-07
9.88517e-07 1.5695e-06 -2.02541e-07
4.50574e-07 5.76698e-07 -4.04774e-07
5.784e-10 2.95787e-08 2.9691e-08
-9.49994e-09 1.04856e-08 1.04538e-08
-2.71001e-09 1.07946e-08 2.10915e-09
1.87992e-08 1.60479e-08 3.91191e-08
2.52541e-08 5.75325e-09 3.94393e-08
1.28434e-08 3.13279e-09 2.34855e-08
1.53406e-08 1.85988e-08 3.73954e-08
3.69748e-08 3.28418e-08 8.03123e-08
2.34308e-07 3.09239e-07 -1.05814e-07
3.82988e-08 2.79488e-08 7.47995e-08
1.96116e-08 4.61453e-06 -3.89326e-07
2.18905e-06 2.85204e-06 -2.77433e-07
1.99979e-06 3.34549e-06 -5.36991e-07
-2.47875e-08 1.79066e-07 1.64719e-07
-6.43332e-08 2.64227e-07 2.3542e-07
5.30731e-06 3.43556e-06 2.03446e-06
6.88349e-06 2.73794e-06 5.50854e-07
4.15644e-07 3.50454e-07 -4.81275e-07
1.34863e-06 6.12805e-07 -3.63646e-07
3.14604e-05 2.20613e-05 2.17746e-05
2.36877e-06 1.34683e-06 5.51021e-08
2.11186e-06 4.53938e-08 -1.97088e-07
3.04273e-05 2.47367e-05 2.68213e-05
-9.75313e-07 3.47569e-07 -1.03915e-07
-1.03798e-06 3.72144e-07 -1.25562e-07
2.87771e-09 1.24622e-08 3.42281e-08
-1.36669e-09 1.73949e-08 3.74568e-08
1.0397e-06 5.60097e-07 9.44088e-08
1.01572e-06 7.13278e-07 -7.70016e-08
6.27707e-08 8.66494e-08 -2.11092e-08
5.03627e-05 2.67665e-05 -4.04676e-05
5.07125e-05 2.64214e-05 -4.40122e-05
3.58611e-08 8.93205e-08 1.62865e-08
4.50646e-08 -2.28041e-08 2.46098e-09
4.40098e-07 3.80064e-07 2.28414e-07
2.1752e-07 1.4127e-07 1.00032e-07
6.98373e-07 3.80612e-07 -2.93801e-07
8.41636e-07 4.01556e-07 -3.17874e-08
-7.2859e-09 1.21401e-07 -1.09424e-08
1.30503e-07 1.68447e-07 -6.41614e-08
3.6945e-07 2.51733e-06 -8.69779e-07
1.30747e-06 9.55387e-07 6.29836e-08
7.72076e-09 -1.68631e-09 -1.26384e-08
-1.66977e-09 -4.15316e-10 1.08277e-08
2.86995e-05 8.26992e-06 9.23269e-06
3.0155e-05 9.86878e-06 1.28058e-05
-4.44321e-08 5.05388e-08 -1.03984e-07
-3.06538e-08 6.50566e-08 -1.26716e-07
1.87854e-06 1.14496e-05 2.68231e-06
1.28313e-07 1.60097e-07 -2.26054e-07
1.24868e-07 1.86482e-07 -2.44353e-07
3.64857e-08 1.42287e-07 1.62568e-07
8.21758e-08 2.30679e-07 2.58329e-07
2.63768e-06 7.88931e-07 -4.74957e-07
-1.8142e-07 6.72817e-06 1.08292e-06
-2.32758e-06 3.50549e-06 5.63226e-07
6.95169e-07 4.37331e-08 -2.92019e-07
2.25209e-07 5.56244e-07 3.397e-07
2.86842e-07 8.77064e-07 5.13203e-07
-6.31903e-08 8.19774e-08 -1.33371e-07
-6.21183e-08 5.9044e-08 -9.78408e-08
1.26112e-07 2.43233e-07 -1.75614e-07
2.60584e-08 1.53882e-07 -1.04066e-07
-4.93482e-05 1.9387e-05 -2.59165e-05
-4.31965e-05 2.14364e-05 -2.67318e-05
2.75721e-06 1.24062e-06 1.51718e-07
2.38446e-06 1.43654e-06 -5.5634e-08
-5.10656e-07 1.52386e-07 -2.73067e-08
-1.38059e-06 2.25268e-08 4.45854e-07
-8.07972e-07 6.01899e-07 -7.9893e-08
9.43793e-07 1.05825e-06 7.27761e-08
2.18695e-07 2.74055e-07 2.13823e-08
4.54105e-05 4.37808e-05 6.46469e-05
-5.93013e-06 3.01794e-06 1.65496e-06
4.78591e-05 4.3e-05 6.87141e-05
-2.34906e-09 7.81686e-09 -9.21708e-09
-1.52767e-09 6.13585e-09 -6.90264e-09
7.16409e-05 5.54748e-05 0.000114775
6.60337e-05 5.76863e-05 0.000110025
-6.32383e-10 -4.57577e-10 1.13998e-09
-1.14113e-09 7.06529e-10 2.46706e-09
3.73009e-07 5.58885e-07 -4.8095e-08
3.05313e-07 6.19993e-07 -1.28877e-07
4.05501e-05 3.29889e-05 -3.85474e-05
3.93915e-05 3.37313e-05 -4.30242e-05
2.07367e-07 7.93511e-08 -1.10031e-07
-3.87529e-09 -1.60466e-09 6.5266e-09
2.47083e-07 1.97061e-07 -2.01004e-07
8.0416e-09 1.32442e-07 -1.06771e-07
2.29483e-07 3.65009e-08 -8.37827e-08
-2.19956e-09 1.35054e-07 3.43094e-08
5.83359e-07 3.1089e-07 1.18422e-07
6.24106e-07 3.36501e-07 4.49932e-08
9.19902e-08 1.37075e-07 1.27488e-07
9.29276e-08 4.74034e-09 -5.62007e-08
1.80146e-06 3.88433e-06 -3.38166e-07
3.67883e-05 5.63503e-06 -1.29496e-06
-4.43377e-08 2.68043e-07 7.33745e-08
-7.73052e-08 3.69666e-07 9.91696e-08
3.20222e-05 5.42357e-06 -7.99421e-06
3.4257e-05 5.97288e-06 -8.24396e-06
4.90345e-08 9.5708e-08 -2.89031e-08
6.92622e-08 1.94445e-07 -3.95357e-08
-3.38252e-05 2.95063e-05 5.13988e-05
-4.04905e-05 2.78854e-05 4.41609e-05
0.000294797 1.9625e-05 6.02254e-05
0.000252015 2.69579e-05 8.09171e-05
-4.04174e-05 2.17066e-05 3.30293e-05
3.07228e-07 2.30276e-07 4.83959e-09
9.11364e-07 4.9422e-07 -1.55592e-07
1.08813e-07 1.85896e-07 -5.34432e-08
8.17545e-07 6.28562e-07 1.49281e-07
6.96234e-08 2.09918e-07 -6.4314e-08
8.27853e-08 1.76746e-07 1.85186e-09
4.21879e-07 -1.95051e-07 4.12055e-07
4.37083e-07 3.17205e-07 -2.71033e-07
4.02293e-07 4.04296e-07 -3.40706e-07
6.69342e-05 2.41171e-05 4.12744e-05
7.12404e-05 2.29186e-05 4.09921e-05
7.08724e-07 -4.75671e-08 4.95291e-07
5.16864e-07 3.00646e-07 8.93132e-09
-7.45519e-08 3.53224e-08 3.0848e-09
-1.04924e-07 5.71731e-08 2.01235e-08
6.05196e-06 4.78871e-05 7.01412e-05
-7.60621e-06 4.42381e-05 6.07313e-05
7.27126e-07 4.20946e-07 2.67546e-07
8.91517e-07 3.50308e-07 2.79717e-07
1.81868e-07 1.56348e-07 8.12953e-08
2.98503e-07 3.70938e-07 1.60382e-07
1.0386e-07 1.01601e-07 -1.3522e-07
1.18091e-07 7.93028e-08 -1.15563e-07
1.60156e-09 9.88486e-09 1.133e-09
1.22265e-09 9.64709e-09 1.51949e-09
8.96814e-08 6.52778e-08 -9.85474e-08
3.54845e-09 3.28291e-09 -9.86013e-09
-1.29745e-09 5.47431e-09 -6.27833e-09
3.71121e-05 1.57271e-05 -1.60444e-05
8.16136e-07 6.60712e-07 2.76204e-07
8.54842e-07 6.20825e-07 1.20385e-07
3.12948e-05 1.07789e-05 -1.11312e-05
3.53527e-05 1.54672e-05 -1.79891e-05
4.13109e-09 1.45124e-08 -3.11344e-08
2.29202e-10 7.89022e-09 -1.60056e-08
6.34192e-08 2.60819e-07 1.9716e-07
1.93889e-07 2.42274e-07 2.0123e-07
1.56214e-06 1.1391e-06 9.0284e-07
1.94343e-06 1.04148e-06 6.37109e-07
1.9483e-09 6.89575e-09 5.83697e-09
6.83545e-10 7.36779e-09 6.92175e-09
3.38995e-07 2.38005e-07 -5.2544e-08
6.21051e-10 2.97202e-09 5.62299e-09
-2.87272e-08 2.02551e-08 -1.09812e-08
-2.18581e-08 1.01959e-08 3.36102e-08
3.21441e-07 2.44701e-07 2.28218e-09
4.17235e-07 3.23746e-07 1.63889e-08
1.20873e-08 -1.69429e-09 2.62611e-08
-2.69296e-09 1.17801e-08 4.046e-08
1.56178e-09 -5.40758e-09 -1.6613e-08
-2.1055e-06 2.46694e-07 6.22506e-07
5.243e-08 -1.99524e-08 -2.20515e-09
-2.17947e-06 3.15504e-07 3.49368e-07
6.90042e-07 1.4445e-06 2.52732e-07
6.04721e-07 9.48904e-07 1.64173e-07
1.07387e-07 3.17069e-07 1.64254e-07
1.65742e-06 5.41536e-07 -2.53473e-07
4.53557e-07 2.05459e-07 1.3601e-07
4.65342e-07 2.88048e-07 1.34734e-07
1.46983e-07 3.42843e-07 1.57616e-07
-3.6004e-08 1.74324e-07 1.67022e-07
-1.66238e-08 1.84398e-07 1.62113e-07
4.24347e-08 1.20824e-08 -4.87561e-08
7.06009e-08 6.56949e-08 -5.34161e-08
2.30709e-07 1.26583e-07 -1.3116e-07
1.21373e-06 9.59259e-06 1.6452e-06
6.34515e-09 9.53594e-09 3.51254e-08
1.44324e-09 8.32257e-09 2.42058e-08
1.12882e-06 7.70733e-07 -1.82607e-07
7.875e-07 1.1545e-06 2.13579e-09
1.89538e-06 1.22709e-06 -6.68469e-07
1.31437e-06 9.48263e-07 -5.22993e-07
1.11715e-06 1.09292e-06 4.10907e-07
3.69442e-07 3.11017e-07 -6.83825e-09
3.40668e-07 2.76057e-07 7.55238e-08
2.91409e-07 2.2915e-07 -2.19984e-07
-1.12451e-08 1.90197e-08 7.91386e-09
-7.57013e-09 2.3818e-08 -1.48436e-09
-7.96802e-09 2.33309e-08 -3.57186e-09
7.39092e-08 2.97472e-08 -7.8393e-08
1.31976e-08 5.67717e-08 -8.60359e-08
7.48983e-08 1.15535e-07 -1.84179e-07
-1.16179e-08 6.77267e-08 -7.42919e-08
1.35333e-07 2.10874e-07 1.60457e-08
2.90134e-06 5.96272e-06 -4.1039e-07
2.33234e-08 1.8138e-08 5.9285e-08
1.69378e-08 1.75817e-08 6.04011e-08
8.96598e-07 1.36597e-07 2.17815e-07
3.66925e-06 1.23019e-06 -6.489e-08
1.45297e-07 2.57573e-07 -1.03771e-07
1.95833e-07 1.49932e-07 -9.89562e-08
2.05769e-07 5.13487e-07 3.3548e-08
2.82412e-08 9.3712e-07 7.57603e-08
1.91599e-08 7.19716e-08 7.81402e-08
1.39252e-08 7.32865e-08 7.1319e-08
2.12722e-08 2.44598e-08 -4.38013e-08
1.86489e-08 4.70844e-09 -1.78484e-08
1.48688e-08 3.48192e-09 2.20733e-08
1.70686e-08 1.24665e-08 3.83367e-08
1.49569e-08 1.86068e-08 -3.5995e-08
8.76743e-06 4.38198e-06 1.31867e-06
2.63371e-05 2.11819e-05 -1.72584e-05
-4.73473e-09 2.01327e-07 2.51736e-07
-1.07184e-07 1.63013e-07 1.9658e-07
8.50273e-07 1.66363e-06 -2.84737e-07
7.64248e-07 1.95078e-06 -2.43372e-07
0.000204328 1.87939e-05 5.10734e-05
0.000184846 2.20523e-05 6.15601e-05
2.43885e-05 1.90071e-05 -1.56337e-05
8.63536e-06 6.52195e-06 3.22556e-06
-8.52736e-07 7.07204e-07 -1.75529e-07
-8.76568e-07 5.68988e-07 -1.58627e-07
5.5906e-06 4.34519e-06 1.76846e-06
2.78879e-05 2.09601e-05 2.00106e-05
2.50307e-05 1.64745e-05 1.52889e-05
1.04562e-09 -5.72485e-09 2.01862e-08
-2.13632e-08 1.60096e-08 -1.44788e-08
-1.32789e-07 6.06583e-08 5.64906e-08
2.39289e-05 1.63944e-05 1.3852e-05
-1.98625e-07 5.85158e-08 -5.04976e-08
-1.56271e-07 7.39983e-08 2.20941e-08
-4.62168e-07 2.81411e-07 -2.05293e-07
-2.85704e-07 1.59065e-07 -1.2203e-07
-1.94825e-07 7.44941e-08 -1.07628e-08
8.83646e-07 5.47021e-06 -2.47282e-07
9.28675e-09 5.33347e-09 -6.11014e-09
9.64737e-09 7.07736e-09 -1.05634e-08
-1.49548e-08 3.37808e-08 -3.05622e-09
6.52705e-09 2.39674e-08 1.615e-08
-5.17986e-09 1.35907e-08 9.08462e-09
-1.48603e-08 2.75669e-08 1.07059e-08
-1.83164e-08 2.39321e-08 5.78893e-09
-3.27944e-08 5.7634e-08 -6.0488e-09
4.57399e-08 3.49919e-09 -5.13625e-08
2.83575e-07 3.32149e-07 4.28661e-08
2.87338e-07 1.60457e-07 -1.12493e-07
2.08671e-07 1.97935e-07 2.02571e-08
-2.34579e-08 9.90164e-08 -1.43523e-08
9.74123e-07 4.96727e-07 -3.46389e-08
-3.73023e-06 3.44913e-06 2.18906e-06
-2.47323e-06 3.53865e-06 2.17607e-06
-1.03068e-06 7.04417e-08 3.48767e-07
-8.82223e-07 -5.03849e-08 5.70402e-07
1.57592e-06 7.84511e-07 -7.93013e-08
1.43403e-06 2.61603e-07 4.97406e-07
-1.4146e-08 8.8555e-09 5.22486e-08
-5.1514e-07 -2.58728e-08 -4.99872e-07
-9.12919e-07 6.37195e-08 -4.55181e-07
-4.48691e-09 3.65915e-10 2.78799e-09
-1.03231e-08 6.20481e-09 1.18643e-08
-1.06926e-08 -9.21562e-10 -3.74049e-09
1.81453e-07 5.28887e-07 1.34555e-07
1.34093e-07 5.15206e-07 1.11011e-07
-2.75104e-08 2.21487e-08 2.0022e-08
3.52985e-07 2.48524e-07 -2.76172e-07
-6.90095e-08 2.42009e-07 1.11215e-07
-1.57255e-06 2.12033e-06 3.47609e-07
-1.49555e-06 2.03859e-06 2.84135e-07
-1.53443e-07 2.19612e-07 1.1069e-07
-1.13151e-07 1.10337e-06 -7.20355e-08
-5.26212e-08 1.15835e-06 -1.05939e-07
3.16793e-07 6.06802e-07 -4.40848e-08
-2.64695e-08 2.6802e-08 3.22883e-08
1.58898e-06 2.86238e-06 -1.05398e-06
1.88862e-06 1.93959e-06 -4.00965e-07
-2.30739e-07 2.14979e-06 -1.0418e-06
-3.20092e-08 3.66995e-09 -1.1976e-08
4.01823e-05 2.96652e-05 4.19493e-05
3.03958e-05 2.86167e-05 3.78137e-05
6.60081e-09 -7.32344e-11 -1.45211e-08
1.36566e-09 7.85284e-08 3.34684e-08
4.58417e-05 2.79565e-05 -3.5409e-05
1.33255e-08 1.33363e-07 6.34118e-08
2.32612e-08 2.75552e-08 5.46561e-08
3.91789e-08 2.35067e-08 5.48223e-08
3.65619e-07 3.88044e-07 -3.31693e-07
2.51746e-08 2.38258e-08 4.29463e-08
2.59611e-06 6.70272e-06 -1.29312e-06
3.95565e-06 3.3585e-06 -3.16055e-07
1.19608e-08 6.61718e-08 8.49718e-08
-1.34591e-08 7.45072e-08 1.99022e-08
-2.37774e-08 1.29443e-08 2.68855e-08
-1.22142e-08 3.46387e-10 7.30236e-09
7.55159e-06 1.61809e-06 -5.78906e-07
9.61632e-06 2.40552e-06 -3.86886e-06
-2.4066e-06 1.88531e-06 1.29945e-07
-1.5992e-07 3.86314e-07 4.71392e-08
2.63591e-06 1.03863e-06 -2.40008e-07
-5.53214e-08 7.57946e-08 6.61033e-09
-2.25199e-08 8.85633e-08 -5.40619e-09
-1.73032e-06 1.07782e-07 6.72776e-07
-2.02262e-06 5.51078e-07 -5.89267e-07
-9.62831e-07 2.34505e-07 -8.73812e-08
-1.13289e-06 1.38007e-07 -3.7893e-07
-7.59953e-08 1.01765e-07 -6.52646e-08
-4.2764e-07 3.75288e-07 6.39864e-09
5.11179e-07 1.68704e-07 -2.73032e-07
5.09959e-07 1.88045e-07 -2.19898e-07
-4.48743e-07 3.8744e-07 1.20203e-08
6.514e-07 4.9568e-06 7.716e-08
1.81473e-06 4.15863e-06 2.77294e-08
1.20893e-06 3.52977e-06 1.74484e-07
1.29276e-08 1.53962e-08 5.46623e-08
8.23018e-06 1.7668e-06 3.82526e-07
9.23335e-06 1.98779e-06 -1.4661e-06
-1.50027e-06 6.29382e-06 -1.09437e-06
1.23876e-08 -2.05108e-09 1.46832e-08
1.9799e-06 4.03648e-06 7.21462e-08
2.97662e-06 9.60869e-06 5.27855e-06
5.05118e-06 6.00932e-06 2.57864e-06
1.06685e-05 9.34028e-06 4.39523e-06
9.88381e-08 4.07649e-07 6.60811e-08
6.15766e-08 5.37723e-07 4.60637e-08
-2.79617e-07 1.42913e-06 1.61958e-07
-4.12931e-08 7.71537e-07 8.97323e-08
6.9825e-07 3.03913e-07 1.56552e-07
3.33471e-07 5.29412e-07 1.00112e-07
1.97023e-06 6.65402e-07 -3.23122e-08
2.70909e-06 1.16037e-06 4.68894e-07
-3.4585e-08 6.82857e-10 2.61881e-08
-2.94217e-08 -2.56722e-09 1.28841e-08
7.51338e-08 1.96714e-08 -8.37516e-08
5.88713e-08 9.22195e-09 -5.0945e-08
-2.12265e-08 6.75776e-08 1.01598e-07
1.32304e-08 5.55132e-08 1.0846e-07
-1.59495e-08 5.72649e-08 9.49938e-08
2.68001e-07 1.01953e-07 2.05765e-07
4.06291e-07 2.5086e-07 -7.54343e-08
5.80192e-07 2.73731e-07 1.43931e-07
2.34124e-08 7.75866e-08 -8.42383e-08
1.27116e-08 7.90993e-08 -8.04736e-08
-5.2892e-08 5.91341e-07 -3.40621e-07
2.43491e-08 3.39231e-07 -2.00132e-07
-2.80622e-07 2.9566e-06 -5.40905e-07
-8.91585e-07 2.07173e-06 -3.82097e-07
-1.52226e-08 6.53461e-08 -5.76624e-08
2.09745e-07 -1.27405e-08 -3.92795e-08
-1.91867e-08 5.08704e-09 1.11637e-08
1.3371e-08 3.45287e-08 -5.29415e-08
-1.64814e-06 3.78188e-06 -1.64253e-07
-8.1509e-08 3.67961e-07 -2.73223e-07
-1.44132e-07 3.17752e-07 -2.23981e-07
2.20936e-05 3.43298e-05 3.35476e-05
1.73314e-06 9.08694e-07 1.3609e-06
9.61712e-05 8.55894e-06 4.02377e-06
0.000109444 9.1742e-06 -1.0927e-05
8.49255e-05 9.48901e-06 -2.22009e-05
0.000104167 9.0521e-06 -6.48163e-06
1.8684e-06 8.81627e-07 1.38002e-06
2.12687e-05 2.71094e-05 2.5605e-05
2.06313e-05 2.67928e-05 2.32064e-05
4.63275e-08 3.03354e-08 -8.36489e-08
-2.563e-08 5.92806e-09 -3.08358e-08
-1.32262e-08 4.89208e-09 -5.29764e-08
5.20642e-08 1.92728e-08 -6.94706e-08
2.33044e-08 9.19619e-09 -3.4382e-08
1.42138e-07 2.52673e-07 9.0557e-08
1.0149e-07 3.80567e-07 2.31761e-07
-6.25139e-07 8.57885e-08 2.2217e-07
-2.3764e-05 9.587e-06 -9.24346e-06
-2.39051e-05 1.07677e-05 -1.14304e-05
-8.94045e-07 7.63237e-07 -2.12064e-07
2.17893e-07 2.08156e-07 -1.69355e-07
3.54577e-07 3.91246e-07 1.05131e-07
1.90657e-07 5.33923e-07 -2.8186e-07
1.79126e-07 2.20364e-07 -1.47672e-07
1.20319e-07 4.46682e-09 7.18367e-08
9.84397e-08 5.2709e-08 1.26694e-07
6.13099e-08 3.15101e-08 8.12258e-08
1.22176e-06 1.63413e-06 -1.12531e-07
1.34936e-06 1.85135e-06 -1.15103e-07
-5.17361e-05 1.99163e-05 -2.9333e-05
-9.71988e-08 2.0947e-07 5.02034e-09
3.13552e-08 5.63247e-09 1.96974e-08
-2.89527e-08 6.47155e-08 1.17042e-07
6.48162e-07 1.98043e-06 -2.106e-07
6.70034e-07 1.35394e-06 -1.69347e-07
-5.50695e-08 9.4269e-08 -1.52382e-09
1.21451e-07 1.92425e-07 3.41717e-09
-1.09454e-07 1.67048e-07 -1.19368e-08
-1.79751e-05 1.76359e-06 1.0047e-07
3.88944e-09 1.07736e-07 -5.17794e-08
-2.45388e-09 9.16656e-08 -4.52708e-08
-9.15798e-06 -8.93135e-08 -1.67208e-06
8.04985e-07 7.62483e-07 -2.77729e-07
-1.43381e-05 3.90811e-06 3.68696e-06
-1.15321e-08 1.05031e-07 3.92811e-10
1.72932e-06 6.28682e-07 1.58182e-07
1.89955e-06 5.03773e-07 4.87129e-07
2.64179e-09 6.93743e-08 -3.71427e-08
-1.01192e-08 8.10487e-08 2.31762e-08
1.15479e-07 2.08887e-07 -1.27538e-07
1.81174e-08 -1.0328e-08 -1.87281e-08
1.78815e-08 8.41551e-10 -3.81148e-08
4.49126e-07 4.78071e-07 -1.35242e-07
5.63743e-07 4.01155e-07 6.51983e-08
2.79763e-06 2.25365e-06 9.18338e-07
3.46035e-05 3.19359e-05 4.08661e-05
2.66291e-05 3.16928e-05 3.78243e-05
1.65894e-08 8.07887e-10 1.65552e-10
-1.47105e-08 3.58795e-10 -1.7247e-08
2.47352e-05 2.97631e-05 3.3323e-05
3.596e-07 9.82125e-08 1.53671e-07
1.78122e-07 1.46517e-07 1.01153e-08
-2.29377e-08 5.68193e-08 -2.88609e-09
-9.83673e-08 1.84131e-07 1.65515e-07
-9.02776e-08 2.01925e-07 1.66042e-07
-5.50208e-07 3.31536e-06 2.74976e-07
-8.98711e-08 3.89784e-08 3.61163e-08
-2.72194e-08 1.19264e-07 9.27242e-08
-5.50512e-05 3.58305e-05 -5.70743e-05
-4.14378e-05 3.06896e-05 -4.50358e-05
-7.00709e-07 3.32678e-06 2.88707e-07
1.04447e-06 1.22838e-06 -2.52828e-07
-2.61262e-07 2.79928e-06 3.67357e-07
-2.75833e-09 -3.05895e-09 -2.51199e-08
1.5547e-07 7.38822e-07 -2.27523e-07
2.21312e-06 3.70014e-05 -3.58952e-05
3.07909e-07 4.25719e-07 -5.63638e-08
9.48975e-07 6.48207e-07 6.73237e-07
6.15998e-08 1.07835e-07 -5.53398e-08
-3.37323e-08 4.83848e-08 2.91948e-08
8.72882e-09 2.2446e-09 -4.26124e-09
-3.90728e-09 3.31185e-09 -2.09745e-08
-1.60203e-05 2.13057e-05 -2.09103e-05
-3.12012e-08 6.39357e-08 9.80318e-08
1.34543e-06 5.02993e-07 -1.96414e-07
-5.2225e-09 -2.58561e-09 1.70215e-09
6.36703e-08 1.2864e-07 1.39722e-07
2.09479e-08 1.21325e-09 2.18977e-08
1.66585e-05 2.57778e-05 -1.86812e-05
2.67335e-07 8.58782e-08 -1.04426e-07
1.38471e-05 2.67345e-05 -2.18673e-05
0.000406923 8.52051e-06 -8.47368e-05
0.000394045 1.24253e-05 -8.46314e-05
1.37149e-08 9.76403e-08 9.25503e-08
0.000108312 6.48555e-05 -0.000174395
1.13616e-08 1.10141e-07 8.88005e-08
-5.18057e-08 6.67416e-08 1.24318e-08
-6.02577e-08 4.86058e-08 -5.95258e-09
4.08605e-08 1.5198e-07 1.27207e-07
1.08749e-06 1.12024e-06 -3.56434e-07
1.43089e-08 1.0825e-09 -1.05816e-08
3.48304e-07 2.76074e-07 -1.01293e-07
3.35317e-05 3.73364e-05 -4.03857e-05
3.51455e-07 1.93307e-07 7.22962e-08
3.54825e-07 1.54577e-07 1.36882e-07
3.63761e-07 1.85195e-07 1.15469e-07
3.26727e-05 3.41945e-05 4.84744e-05
-8.85365e-08 4.74639e-08 -1.80785e-08
-7.76846e-08 4.07523e-08 -4.59904e-08
-1.60551e-07 9.95768e-08 -1.19842e-08
-2.87097e-07 2.47449e-07 -6.74293e-08
3.78222e-05 3.89968e-05 5.39964e-05
7.58671e-06 3.05795e-06 -5.67116e-07
2.29984e-06 5.13487e-06 -2.67066e-06
2.39078e-06 4.67953e-06 -2.26071e-06
0.000262097 1.21002e-05 -4.03651e-05
0.000247625 1.36028e-05 -4.04457e-05