# vtk DataFile Version 2.0
S, Created by Mohamad Ibrahim Cheikh
ASCII
DATASET UNSTRUCTURED_GRID
POINTS 10490 double
-223.577 20.3383 -34.7914
-223.732 23.2833 -32.7642
-130.494 -29.3212 69.2781
-194.385 -37.8826 -41.0223
-207.477 29.5025 40.042
-235.881 27.3945 13.4743
-191.276 -39.7124 -41.0808
14.442 -3.17613 87.7974
-191.089 39.2073 -41.6684
-193.431 36.9199 -42.428
-251.147 3.2111 -3.3801
-251.007 5.4614 -0.714548
-204.328 29.2925 -42.1244
18.649 -1.59064 87.7433
-201.232 30.3615 -43.1792
-151.397 68.7285 -14.6348
-148.625 69.9357 -12.1889
241.381 21.7602 -11.7088
240.378 24.3442 -8.7825
40.2764 72.7994 -47.3881
44.084 72.0934 -48.0479
45.4968 -3.24027 -86.4874
49.3517 -1.54076 -86.2754
-145.563 -45.4986 -55.4954
-142.059 -46.9236 -55.4204
-191.797 -27.3673 49.9127
-189.472 -30.0451 49.4579
-64.339 -67.839 51.3329
-66.4777 -66.0186 53.3338
-121.233 -41.6834 -64.862
-205.502 44.6019 24.1719
-208.44 41.8656 25.9231
-64.8779 -22.6472 81.9498
-61.236 -23.9578 81.9203
44.3522 4.12637 86.5225
-201.399 -44.918 27.5758
-54.8032 81.9808 -25.6016
-51.8996 81.5559 -27.6198
-109.542 -78.4118 -11.2477
-105.515 -79.2424 -10.0779
-195.509 42.633 35.3083
-200.947 -43.0035 30.838
-54.4345 -15.3781 84.5266
3.54604 8.20597 87.6078
226.255 36.0722 -13.2452
223.494 37.2783 -15.4584
-147.021 22.4049 -67.7912
-143.856 23.6473 -68.1996
-167.021 -43.0254 -49.7746
-163.502 -43.4804 -50.7987
-215.267 -7.16081 -44.9365
-215.168 -3.16512 -45.451
-105.652 -17.6618 77.881
-104.116 -21.1963 77.25
-247.959 -12.5244 7.7245
-247.222 -12.2256 10.5722
-226.225 -18.8478 33.512
-129.028 -40.8345 -63.5476
238.447 4.07536 -27.6832
236.191 2.11791 -30.159
30.7322 -3.79428 -87.2581
26.7554 -2.08025 -87.4759
-224.961 -22.5413 32.2492
-47.66 -75.8727 41.3429
-235.553 -26.7708 15.3058
-110.556 51.0752 -60.3233
-237.919 -25.2897 13.1985
-16.8311 -1.56953 -87.7887
-20.0236 -4.08731 -87.6254
25.3141 7.3795 -87.2416
27.4384 3.59833 -87.4007
25.496 1.6326 -87.5314
45.9949 -6.36605 -86.2813
-242.159 -16.9756 16.6251
249.587 -5.3692 -9.40944
249.111 -2.3026 -11.8806
-169.147 48.1594 43.8392
30.4387 -13.5116 -86.3018
-165.523 47.9272 45.7454
-244.371 -14.4435 14.9725
243.986 6.92781 20.1941
244.544 3.56422 20.2422
-218.53 -34.253 26.9075
-142.146 -69.411 21.2685
-139.63 -70.7398 18.786
-221.096 -32.0566 27.0474
-157.971 -59.8004 33.3568
-205.042 32.4576 39.2844
-154.32 -61.3641 32.6009
21.3223 7.28647 87.3799
-119.108 18.4665 75.2735
-116.436 20.5429 75.2474
25.5783 -59.0353 64.6431
29.1137 -57.6656 65.6879
-134.645 54.9828 -50.0132
-136.967 52.508 -51.8666
-177.1 57.9122 23.457
-176.719 59.3812 19.8601
-70.6255 64.8404 -54.1207
-62.7999 16.9138 -83.5169
-66.4111 16.9228 -83.1724
-67.1013 66.3605 -52.8113
124.479 57.7394 50.1308
121.047 58.3452 50.4572
-132.441 -69.8473 26.7929
-132.815 -68.0013 30.9867
-188.882 35.1104 46.2969
-185.134 37.2783 46.455
-232.727 13.1727 -30.6497
-61.0038 74.6629 41.3984
-62.2588 76.1989 38.2513
-231.928 16.7969 -29.6019
-175.272 -46.957 -42.1659
-178.796 -11.2361 60.8595
-181.802 -8.37802 60.2266
-195.832 53.7468 12.6511
-198.388 52.0597 14.6699
-195.137 -6.40585 -55.1455
-196.112 -2.36688 -55.0429
-155.763 25.009 64.4061
-159.485 22.4695 64.2264
-196.211 -54.5515 -7.39845
-193.182 -56.048 -5.79669
-91.7073 75.0538 -32.8825
-87.7483 75.4379 -33.3232
-39.2308 -78.9683 -36.3261
-42.732 -77.6555 -38.6012
-35.7558 20.3332 -84.6997
-119.252 -59.0802 -50.1244
-116.057 -58.393 -51.8192
-103.566 -58.9138 54.4057
-107.461 -57.2239 55.2775
-176.123 46.8936 -41.8005
26.9027 13.8685 -86.389
23.8309 15.7164 -86.1827
-175.615 44.587 -44.499
-89.4485 -39.6002 72.085
-93.3189 -38.4677 72.0976
-1.70619 -75.0139 -46.0061
2.63282 -75.2498 -45.6139
-158.024 -33.2005 -59.8702
-154.737 -36.6347 -58.9109
26.6844 72.4815 49.023
29.073 70.4428 51.7525
-166.628 38.791 53.2915
-169.032 36.4137 54.0368
126.654 60.2605 46.3546
125.024 62.2371 44.2361
55.9316 20.2495 83.3724
-158.166 12.6278 67.2441
-155.549 9.85197 68.4446
-44.7864 72.5823 -47.2253
71.0577 53.0216 -65.6851
-42.2071 74.2919 -44.7951
222.064 -27.8284 -30.5323
225.276 -26.0125 -29.2251
-17.8294 78.206 -39.8609
-20.8006 77.0526 -41.8799
247.477 -7.06407 13.9944
245.671 -9.07241 16.5072
-182.899 19.8458 57.0492
-181.356 22.6878 56.5908
-56.2859 68.0942 52.147
-53.9557 69.9229 49.9836
-221.676 26.3857 -32.1172
245.289 -12.7014 14.7128
-123.341 -44.6632 -62.3432
-128.466 -46.9026 -59.3599
-126.786 -44.2476 -61.7909
-219.064 -11.0554 41.7909
-206.378 49.8739 -6.48308
-208.064 48.511 -9.51826
-173.564 -35.1413 53.1126
-196.135 -34.8663 -42.6449
-56.8659 10.5672 85.0672
-100.302 80.5533 4.84306
-149.824 -21.4723 67.3403
-153.214 -21.7198 66.3193
-106.291 79.7144 2.53498
-104.011 79.9218 5.65756
-208.26 -1.82692 -49.3007
-211.703 -0.429448 -47.5048
8.03799 75.9567 -44.3472
9.51374 74.1727 -47.237
-23.7781 85.253 -20.1666
-25.3903 84.1998 -23.9886
13.3012 73.9169 -47.525
-209.323 34.9039 -34.0775
-209.443 37.4738 -31.1308
-243.671 12.2877 -17.9902
-206.009 40.0811 -30.6856
-237.953 16.7263 23.0658
-240.125 13.5328 22.3944
-198.677 34.6978 41.3207
-44.0981 -51.8654 -69.3966
-47.9426 -52.1852 -68.8426
-66.0076 77.874 -33.8557
-62.9373 78.866 -32.2365
-198.916 37.6915 38.4587
-195.388 39.9797 38.362
193.195 51.8472 -22.0511
191.21 51.6113 -24.5779
-17.5355 71.5732 -50.8294
-15.8882 69.9377 -53.1207
-160.726 -8.68434 67.1256
-158.275 -5.15003 68.1945
-159.182 -12.1875 67.0313
-155.591 -13.9556 67.7153
-181.219 -39.3698 -46.6195
-187.07 -34.8955 -47.348
234.201 -8.1983 31.0077
231.367 -8.83978 33.3481
-185.725 -37.8064 -45.7338
-220.423 -36.332 -21.8072
-223.2 -33.1949 -23.2993
-75.1165 69.3109 47.4256
-199.264 43.3592 -31.6662
-202.428 40.5053 -32.9615
-79.7129 71.757 42.6262
-75.9562 71.4906 43.8948
-199.863 -47.1008 -25.1998
-196.405 -49.1628 -24.5818
-156.239 -38.5677 57.1658
-155.218 -34.6089 59.9711
-162.939 56.2382 -36.4806
-159.798 58.0682 -35.2954
245.94 -16.0779 8.95225
246.756 -13.0535 10.9094
-202.197 25.1196 -45.9087
246.469 -16.6406 5.45926
-222.674 -40.7298 -3.81009
-219.563 -42.6766 -4.53664
-225.918 36.4498 -12.9115
-224.094 36.2076 -16.8757
-228.901 -34.8682 10.6495
-231.376 -33.5775 7.89082
-225.472 -37.7615 9.6949
119.618 74.8202 19.8532
-172.164 -51.102 -38.7773
115.424 75.6337 19.8097
47.8992 12.1359 -85.5326
51.4883 10.7507 -85.4626
-180.223 -22.1807 57.2315
-179.977 52.3118 -32.2762
-165.46 0.84396 66.2686
-168.583 2.81988 65.2422
-181.023 -17.4233 58.5533
36.4529 -59.7576 63.3272
37.7868 -57.211 65.5446
-159.985 -59.9395 -31.9
-182.768 -21.7992 -56.3835
-184.316 -18.0326 -57.0926
-11.9729 14.8649 -86.6342
-188.59 -54.998 19.1009
-192.466 -53.1212 19.6698
-145.958 9.3214 -71.0554
-143.752 12.1175 -71.1842
-174.402 52.3983 35.7008
-173.454 50.7008 38.5999
-187.199 39.6979 -43.3324
-231.504 33.4911 -7.79779
-229.098 35.9657 -4.96061
-234.908 30.8675 -5.93747
241.404 7.72059 23.4443
239.892 10.8364 24.102
240.61 13.4015 21.8298
-138.88 -61.8306 -39.4915
-138.123 -60.1636 -42.292
-141.497 -58.2522 -43.5828
-200.351 -41.1655 -33.6898
-218.718 20.1121 -38.5061
-52.7317 8.93136 85.5792
-56.68 -81.1833 27.5672
-60.1944 -81.461 25.7777
-152.622 56.1683 41.6809
-153.452 58.0321 38.6436
-189.415 -9.90222 -57.0382
-186.069 -8.88225 -58.5352
64.908 -8.71814 84.5706
67.8928 -7.09148 84.4356
-196.835 -37.2206 40.1891
-200.415 -34.611 40.3549
-180.668 -48.246 -37.6838
-174.532 -52.0917 -36.07
-215.619 -38.509 23.8557
-218.655 -36.4151 23.7598
-178.254 -50.9821 -35.421
-121.743 47.8565 -60.3256
-71.7706 59.1702 60.1019
26.8711 -68.3038 54.6826
24.8101 -66.5904 56.8715
-87.2099 -8.62054 -82.0886
-84.0285 -6.3188 -82.702
-36.8668 85.2627 -17.5459
-40.1541 84.7121 -19.2472
-75.5499 59.6908 59.0102
-117.803 48.8374 -60.4968
67.1072 -10.9807 -84.0956
63.3584 -11.5842 -84.3702
-122.438 44.6511 -62.5694
-76.7119 63.6219 -54.5507
-80.1575 63.9261 -53.58
-210.937 -46.4386 -11.8322
-207.91 -47.2776 -14.7159
-70.3817 -66.9064 51.5855
-82.9411 61.4517 -55.9058
181.008 57.5716 -20.4498
187.796 54.7413 -20.7272
-57.9795 -57.7734 -63.2034
-60.2441 -59.9519 -60.8722
185.033 56.5045 -18.9615
-52.2299 4.82862 85.9459
170.803 -60.94 -21.4144
166.657 -61.8364 -22.7989
-242.16 -11.2313 20.9366
-241.443 -7.71483 23.3968
231.623 25.8607 -22.5155
229.371 25.1798 -25.8605
225.985 27.6871 -26.9258
-235.384 -18.9703 -24.5114
-234.85 -16.6288 -26.7371
-226.071 27.1579 -27.3722
-222.955 28.459 -29.1236
-220.771 31.3731 -28.151
-250.634 -7.29632 -0.178264
-176.064 45.2981 43.5535
58.7408 51.198 -68.5589
59.7948 48.3671 -70.4761
128.127 68.3788 32.5338
131.617 68.3053 30.9438
-176.961 47.6016 40.5481
-181.061 46.7496 39.3045
18.7051 -86.4181 15.267
142.044 69.3648 -21.5015
141.114 68.3949 -25.0633
23.2386 -86.1703 15.892
181.098 -44.0246 42.3148
25.6369 -86.6618 12.3797
-189.029 21.635 -53.8632
-189.449 17.8891 -55.0441
-212.326 -45.0148 14.0791
-120.855 -47.0075 -61.2054
-24.3194 -37.2776 79.2589
52.3478 18.493 -84.0626
55.8604 16.708 -84.1594
-25.2882 -41.1262 77.2939
-119.135 -6.55459 -77.2227
-115.757 -7.77138 -77.7373
-200.054 16.4633 50.7255
-215.148 -43.2647 14.3196
-153.456 32.992 61.4201
-156.887 31.3266 61.2307
-157.692 28.1735 62.4964
-79.9671 -83.431 0.603141
-63.9565 72.2722 -44.9437
-63.0553 70.2488 -48.1905
-79.8046 -83.3553 -4.02083
-209.642 -18.6829 44.8795
-60.9933 70.8676 47.6059
-205.671 -19.6763 46.6685
-191.284 -46.3889 33.3528
-190.154 -45.0081 35.9354
-195.138 47.3179 29.0345
-192.217 -42.6385 37.4498
-97.7291 19.689 78.6576
-94.1677 20.9457 78.8646
-195.846 -41.8734 35.9821
-247.679 -8.81317 12.483
188.065 -42.022 40.5952
184.93 -44.2656 39.9693
-127.322 75.4752 7.92301
-123.731 75.9916 9.74396
48.9096 1.65988 86.304
130.449 15.586 -73.6049
-179.753 46.506 -40.3153
198.596 13.1791 52.3603
200.491 9.43231 52.2854
113.382 74.8955 23.6804
109.647 75.338 24.4188
149.579 63.7387 -30.6941
145.753 65.3517 -29.5337
-166.874 -45.6715 -47.4217
129.851 19.35 -72.8371
-209.812 43.7046 -21.081
-206.951 46.1275 -19.3054
126.477 20.2019 -73.3311
-61.9033 -0.410912 85.2917
-59.2136 2.52545 85.4889
[...]
POINT_DATA 10490
VECTORS F double
4.79335e-10 7.14431e-10 4.36912e-11
1.07082e-09 1.1953e-09 -4.12201e-11
4.67496e-09 1.46751e-08 7.28417e-09
4.69711e-11 3.09108e-11 -5.59087e-11
3.64305e-09 2.95772e-09 1.26931e-10
4.02301e-10 4.23193e-10 -3.1627e-12
9.32203e-11 4.91752e-11 -1.0109e-10
-2.58605e-07 6.05773e-07 2.70551e-08
3.87206e-08 2.16177e-08 -1.3648e-09
3.14317e-08 2.0001e-08 -1.08445e-10
7.10726e-12 3.62679e-11 -2.50008e-11
7.11159e-12 4.19605e-11 -1.74562e-11
3.81367e-09 4.54647e-09 9.04449e-10
-3.03287e-07 9.92782e-07 2.58128e-08
5.16314e-09 3.36047e-09 -5.76873e-10
9.1493e-07 1.84578e-07 -2.90759e-07
1.2986e-06 2.42143e-07 -5.47141e-07
-2.41587e-11 3.83494e-11 1.00573e-11
-3.55348e-11 4.75114e-11 1.24378e-11
-4.44196e-05 6.22403e-06 4.94078e-06
-4.07886e-05 9.31463e-06 9.3963e-06
-7.0549e-07 4.82519e-07 -6.34689e-08
-6.17555e-07 4.15387e-07 -5.06064e-08
6.25234e-11 1.16697e-09 -9.76042e-10
5.03696e-10 1.25956e-09 -1.22359e-09
1.7436e-10 4.27452e-10 3.15582e-10
1.46761e-10 2.79084e-10 2.38421e-10
-4.2058e-10 1.08835e-09 1.3733e-09
-6.58827e-10 1.33152e-09 1.54681e-09
5.85387e-09 3.45754e-09 -3.55881e-09
1.11529e-08 5.21877e-09 1.95292e-09
7.4957e-09 4.66103e-09 -1.74665e-10
2.59743e-08 3.04645e-07 8.66699e-08
2.80224e-09 1.60283e-07 4.71036e-08
-4.10958e-07 7.64362e-07 -1.07417e-08
6.05848e-12 8.81393e-12 1.9232e-11
0.000165987 5.23323e-05 0.000124088
0.000180979 5.8127e-05 0.000130011
8.08909e-12 2.16488e-12 -2.93124e-11
9.23793e-12 7.10654e-13 -1.45118e-11
2.05864e-08 9.35558e-09 2.63238e-09
1.53212e-11 9.1211e-12 2.43581e-11
3.72599e-08 3.93831e-07 7.45347e-08
-3.93508e-07 1.25732e-06 -1.15936e-07
-1.66247e-10 1.24935e-10 -4.47461e-12
-2.97488e-10 2.62956e-10 1.09198e-10
1.71202e-07 1.12358e-07 -8.26071e-09
1.7186e-07 2.10758e-07 2.87616e-08
4.98427e-12 2.7656e-10 -2.41112e-10
1.00243e-10 4.03998e-10 -3.84793e-10
1.53278e-10 3.71626e-10 -1.48704e-10
3.43407e-10 4.52164e-10 -2.2977e-10
7.9681e-08 1.68641e-07 5.14403e-08
3.14957e-08 1.29145e-07 4.0606e-08
-4.25862e-12 9.20974e-12 1.50577e-12
-1.42742e-12 1.07033e-11 4.03845e-12
4.33527e-11 3.61313e-11 5.57951e-11
2.3334e-09 2.57053e-09 -2.22978e-09
-1.56229e-11 1.32007e-11 -1.38621e-11
-1.97824e-11 1.56649e-11 -1.79878e-11
-5.28213e-07 9.19198e-07 -6.26483e-08
-4.70879e-07 1.38555e-06 -5.0474e-08
2.17498e-11 2.4973e-11 3.67069e-11
-6.64592e-11 1.5847e-10 2.81566e-10
7.41666e-13 2.31084e-12 4.02189e-12
7.05741e-06 2.80935e-06 7.96025e-07
-1.41654e-12 3.37528e-12 3.98636e-12
-1.39832e-07 1.7785e-06 -2.83442e-08
1.13271e-07 1.20227e-06 -5.91198e-08
-1.49983e-07 2.9025e-06 2.40329e-07
-1.17898e-06 2.17393e-06 4.43034e-08
-6.45685e-07 1.45728e-06 4.27855e-09
-2.49906e-07 5.12132e-07 -5.4057e-08
1.42721e-12 7.77625e-12 1.10615e-11
1.41673e-12 3.39946e-12 -9.8404e-13
-1.41933e-12 3.6903e-12 -2.23787e-12
6.48286e-08 3.63931e-08 -9.43967e-09
6.8832e-08 3.39671e-07 -5.01629e-08
8.6603e-08 4.65064e-08 -1.04396e-08
1.4156e-12 7.10144e-12 6.97878e-12
-3.17319e-12 5.31491e-12 2.66772e-12
-1.42152e-12 4.3519e-12 8.86106e-13
7.11491e-12 2.80826e-12 1.15481e-11
2.06456e-11 1.06776e-11 4.99596e-11
7.88642e-12 5.0253e-12 2.90607e-11
4.44069e-12 6.80456e-12 1.40402e-11
4.4852e-11 4.46845e-11 1.06767e-10
4.31512e-09 3.42765e-09 -8.20447e-11
6.71644e-11 4.15846e-11 1.17768e-10
-2.58021e-08 1.44416e-06 -1.1978e-07
4.30258e-07 4.31759e-07 -2.26753e-08
4.38123e-07 5.38012e-07 -6.39926e-08
4.5004e-10 3.3151e-09 3.00431e-09
-1.22346e-10 5.71556e-09 5.02192e-09
1.59876e-06 9.73857e-07 5.4412e-07
1.70864e-06 8.11614e-07 2.69714e-07
6.51302e-08 3.60675e-08 -2.90057e-08
1.25084e-07 5.73062e-08 -3.52631e-08
4.21665e-05 1.98545e-05 1.70531e-05
1.17034e-06 8.62085e-07 6.70165e-08
9.60893e-07 6.77583e-07 4.4132e-08
4.72466e-05 1.751e-05 1.46559e-05
-3.52582e-07 1.20594e-07 -3.18114e-08
-3.99345e-07 1.76538e-07 -8.69637e-08
1.73455e-11 2.90964e-11 8.60294e-11
2.98495e-11 4.21224e-11 1.09888e-10
3.03316e-08 1.91164e-08 6.2472e-10
3.32339e-08 2.58991e-08 -4.60575e-09
1.90659e-10 2.60766e-10 -6.42036e-11
0.000101764 3.01706e-05 -3.60614e-05
9.18683e-05 2.85021e-05 -3.8478e-05
3.06727e-10 3.25349e-10 -1.08124e-10
4.62621e-11 4.10609e-11 -6.91556e-11
3.63421e-09 3.29183e-09 1.91257e-09
2.54345e-09 2.94844e-09 1.34768e-09
2.66973e-08 1.26647e-08 -3.27493e-09
2.20824e-08 1.11592e-08 -3.09579e-09
5.34916e-10 9.03502e-10 -3.35383e-10
1.13669e-09 1.35237e-09 -5.5264e-10
7.78874e-08 1.32547e-07 -2.84496e-08
9.99438e-08 6.50467e-08 7.59224e-09
9.5068e-13 3.55698e-13 -6.02018e-13
6.6356e-14 3.50642e-13 -1.65769e-13
2.84683e-05 9.15404e-06 1.11787e-05
2.98922e-05 6.50359e-06 5.09075e-06
-9.54199e-11 1.95526e-10 -4.1324e-10
-3.44782e-11 3.02992e-10 -6.04772e-10
1.40161e-06 6.73116e-06 1.54398e-06
7.85553e-10 7.99377e-10 -1.17032e-09
7.55829e-10 1.27202e-09 -1.63982e-09
7.27878e-10 1.68084e-09 1.98853e-09
5.93145e-10 2.33567e-09 2.55732e-09
1.71687e-07 7.4571e-08 -4.81108e-09
-6.0364e-08 3.22269e-06 5.15299e-07
-7.45317e-07 2.61256e-06 4.5154e-07
7.61739e-08 2.58229e-08 -1.08416e-08
6.4913e-09 2.59931e-08 1.52574e-08
3.50738e-09 3.06217e-08 1.68846e-08
-2.31822e-10 6.03385e-10 -9.8237e-10
-1.63141e-10 3.08383e-10 -5.10136e-10
1.14257e-09 2.48107e-09 -1.74382e-09
2.82257e-10 1.39893e-09 -9.59796e-10
-6.12345e-05 3.20424e-05 -4.32968e-05
-5.69083e-05 3.35172e-05 -4.17099e-05
1.90829e-07 6.13157e-08 2.8355e-08
1.34747e-07 8.06748e-08 -2.81335e-09
-2.09208e-07 7.44463e-08 -2.69036e-08
-4.49637e-07 5.60162e-08 7.66536e-08
-3.22597e-07 4.25845e-07 -7.70394e-08
4.30136e-08 6.03318e-08 1.02975e-09
1.98589e-08 2.51395e-08 1.88913e-09
4.07918e-05 5.16471e-05 7.46482e-05
-4.33137e-06 3.06446e-06 1.90041e-06
6.54611e-05 4.30253e-05 6.38104e-05
-1.41966e-12 2.32367e-12 -3.9989e-12
-1.41271e-12 1.95074e-12 -2.66754e-12
-5.65094e-05 0.0001467 0.000290921
3.79303e-05 9.16408e-05 0.000166302
1.41415e-12 1.1127e-12 2.66786e-13
-1.10225e-12 8.72368e-13 5.33139e-13
1.32568e-08 1.18737e-08 1.06248e-09
1.56336e-08 1.4182e-08 4.37546e-10
3.07434e-05 1.4961e-05 -1.54777e-05
2.80835e-05 1.80445e-05 -2.15345e-05
1.88028e-09 1.30653e-09 -5.10064e-10
-4.54435e-13 6.21714e-13 4.59342e-13
3.73993e-09 3.62727e-09 -3.50275e-09
1.06143e-09 2.13358e-09 -1.96524e-09
2.87447e-09 1.89281e-09 -2.07563e-09
1.19548e-10 1.31547e-10 1.11327e-10
1.34961e-08 6.83477e-09 7.62072e-11
1.29908e-08 6.34109e-09 -2.37198e-09
2.69865e-10 4.25802e-10 3.89326e-10
9.29691e-11 6.69114e-11 -1.07364e-10
4.33273e-07 1.52408e-06 -1.54153e-07
3.54936e-05 5.4539e-06 -7.59993e-07
1.90381e-09 4.92921e-09 2.08773e-09
7.40649e-10 5.59225e-09 2.03783e-09
2.42994e-05 4.28525e-06 -1.00873e-05
3.07743e-05 5.80904e-06 -1.28229e-05
4.89612e-10 5.96327e-10 -2.74319e-10
3.57784e-10 7.00796e-10 -2.00382e-10
-5.86709e-05 6.17489e-05 0.000104462
-3.75612e-05 6.74331e-05 0.000104961
0.000379474 0.000135454 0.000517837
0.00020601 0.000166503 0.00055773
-4.08984e-05 2.34494e-05 3.50718e-05
6.40165e-09 4.72946e-09 4.86722e-11
1.42697e-08 9.12527e-09 -7.46407e-10
1.5088e-10 1.98015e-10 -1.13547e-10
1.65444e-08 1.02976e-08 -1.19754e-10
1.38268e-10 2.10834e-10 2.09845e-11
1.08681e-10 1.72892e-10 3.73057e-11
9.70243e-09 7.05719e-10 5.10293e-09
7.49819e-09 1.52216e-08 -1.19553e-08
4.58269e-09 1.75881e-08 -1.37172e-08
8.01361e-05 3.11537e-05 5.25376e-05
8.30518e-05 3.16692e-05 5.76325e-05
1.61166e-08 4.85852e-09 5.42598e-09
1.89437e-08 6.63858e-09 4.87044e-09
-4.40468e-09 2.31784e-09 7.32428e-10
-5.46685e-09 2.81883e-09 7.1874e-10
2.99821e-05 8.81351e-05 0.00012284
-5.26359e-06 7.52203e-05 9.92298e-05
1.31865e-08 1.33016e-08 5.57921e-09
2.24857e-08 1.05994e-08 7.18125e-09
2.59968e-09 6.31602e-09 1.89934e-09
5.54947e-09 8.82445e-09 3.37498e-09
2.33546e-10 1.65782e-10 -2.51006e-10
2.96966e-10 1.96637e-10 -2.87998e-10
-1.42626e-12 2.86212e-12 2.34658e-12
-1.42736e-12 5.1741e-12 3.37038e-12
1.61026e-10 1.1549e-10 -1.7545e-10
-2.33316e-13 2.48782e-12 -4.5647e-12
3.35911e-13 4.61932e-12 -6.24524e-12
5.35404e-05 1.09989e-05 -5.69753e-06
2.77896e-08 1.72282e-08 2.2181e-09
2.23287e-08 1.6359e-08 3.34369e-09
4.09232e-05 7.32585e-06 -2.96802e-06
4.536e-05 1.05145e-05 -7.52006e-06
1.42405e-12 5.92949e-12 -1.21799e-11
1.41376e-12 2.48577e-12 -5.57974e-12
7.12318e-10 1.59444e-09 1.31277e-09
1.5795e-09 1.74393e-09 1.50539e-09
3.49277e-07 1.76739e-07 8.17491e-08
4.42204e-07 1.94425e-07 7.51486e-08
1.41632e-12 2.47928e-13 2.66439e-13
1.42094e-12 6.22256e-13 2.70671e-13
5.30217e-09 4.05313e-09 -6.3562e-10
1.42072e-12 1.77462e-13 -2.60232e-14
-1.41835e-12 3.51884e-13 -2.61784e-13
1.37982e-12 3.50854e-13 -8.20414e-14
2.5159e-09 1.80661e-09 -2.65003e-10
3.65387e-09 2.52759e-09 -4.97182e-10
-9.59603e-13 1.06935e-12 4.25204e-12
-4.92773e-13 3.56491e-13 2.64823e-12
-1.41384e-12 3.78034e-13 1.33128e-12
-1.11051e-06 1.88997e-07 1.06251e-07
2.55467e-11 1.31534e-11 -3.138e-11
-1.20079e-06 2.40658e-07 -6.31296e-08
5.18085e-08 8.25967e-07 1.20877e-07
2.33476e-08 4.84844e-07 6.27836e-08
7.35386e-10 1.80396e-09 9.81023e-10
1.35117e-07 4.71158e-08 -1.57649e-08
1.13337e-08 7.84209e-09 3.35854e-09
1.06853e-08 1.21732e-08 2.84628e-09
1.83686e-09 2.31229e-09 1.38132e-09
-5.45659e-10 3.26011e-09 3.11375e-09
-8.4723e-10 4.05618e-09 3.59874e-09
2.70013e-11 7.46065e-12 -3.12712e-11
3.16322e-10 4.95169e-10 -3.16177e-10
1.1011e-09 9.72604e-10 -7.41405e-10
1.48718e-06 5.61505e-06 9.38653e-07
2.17585e-12 1.07289e-12 7.02961e-12
1.4201e-12 1.78028e-12 6.32755e-12
8.14385e-08 8.40875e-08 -9.40431e-09
9.57734e-08 1.00471e-07 -6.5255e-09
1.18872e-07 7.66214e-08 -4.14861e-08
1.11143e-07 6.23797e-08 -2.08922e-08
4.94224e-08 3.85415e-08 9.20578e-09
1.46708e-09 1.15887e-09 -3.28157e-10
1.80145e-09 1.36551e-09 -2.44744e-10
1.1065e-09 9.16943e-10 -5.64808e-10
-4.26388e-12 9.4113e-12 2.66429e-12
-5.22093e-12 1.19537e-11 1.59476e-12
-7.58779e-12 1.66804e-11 1.26022e-12
1.23888e-10 8.28188e-11 -1.83702e-10
1.60795e-10 1.09779e-10 -2.20129e-10
2.17997e-10 2.40694e-10 -4.08428e-10
7.16685e-12 2.02488e-11 -3.08027e-11
1.11903e-09 1.30425e-09 -9.36326e-11
7.79504e-07 1.86509e-06 -1.36096e-07
9.59434e-12 4.05214e-11 1.22197e-10
-8.83292e-12 3.43186e-11 1.06037e-10
2.41609e-07 4.47287e-08 4.77224e-08
5.7561e-07 2.15803e-07 -4.45786e-08
1.28639e-09 1.46234e-09 -7.75065e-10
1.52752e-09 2.03068e-09 -9.00596e-10
2.70268e-08 1.02476e-07 8.00857e-09
1.22505e-08 1.70307e-07 1.30734e-08
4.97374e-11 4.9383e-11 7.56853e-11
3.89624e-11 6.7451e-11 8.20841e-11
1.85309e-11 3.37594e-11 -5.44203e-11
1.18692e-11 1.52995e-11 -2.94903e-11
4.26415e-12 1.77905e-12 8.18918e-12
1.57443e-12 3.20517e-12 8.47061e-12
1.4285e-12 2.07286e-11 -3.11989e-11
3.45045e-06 1.53505e-06 3.65904e-07
1.71534e-05 1.67078e-05 -1.39433e-05
3.52751e-11 1.1688e-09 1.45736e-09
-1.54853e-10 1.32616e-09 1.56057e-09
1.19692e-07 2.54179e-07 -4.22075e-08
1.18122e-07 3.26912e-07 -3.96039e-08
0.000377753 5.94196e-05 0.000191575
0.000371056 5.81414e-05 0.000161132
1.65432e-05 1.88723e-05 -1.64994e-05
3.52337e-06 2.65449e-06 1.30359e-06
-1.12804e-07 1.19134e-07 -2.65564e-08
-1.38285e-07 1.35019e-07 -3.12263e-08
1.96339e-06 1.38153e-06 5.16075e-07
2.47598e-05 2.62368e-05 2.63396e-05
1.90577e-05 1.71528e-05 1.6978e-05
1.42092e-12 3.56719e-13 -1.16804e-12
1.34796e-12 4.09046e-13 -2.39844e-12
-3.43208e-10 6.19685e-10 7.46177e-10
2.27173e-05 1.43089e-05 1.16055e-05
-1.84359e-08 6.65936e-09 -1.20099e-09
-1.13428e-08 5.17253e-09 1.10096e-09
-4.92515e-09 8.20658e-09 -6.94561e-09
-7.81266e-10 4.37698e-09 -4.21375e-09
-1.54521e-08 6.13908e-09 -1.35503e-10
1.38689e-07 1.59422e-06 -7.94655e-08
-3.52432e-13 1.06283e-12 -2.69413e-12
-1.42068e-12 1.09156e-12 -4.08331e-12
1.42287e-12 1.68433e-11 1.18634e-11
9.9432e-12 2.10419e-11 1.82443e-11
-3.55304e-11 4.63502e-11 7.99892e-12
-6.62262e-11 7.1743e-11 -1.46122e-12
-8.85477e-11 8.44758e-11 -3.70477e-12
9.80088e-13 1.7477e-11 -1.33476e-11
7.11397e-12 1.81964e-11 -2.02149e-11
1.39685e-09 1.33503e-09 -8.35347e-11
1.74771e-09 1.47708e-09 -1.8901e-10
2.41166e-09 1.70462e-09 -4.08912e-10
-4.26897e-12 1.54467e-11 -2.89825e-12
6.3538e-08 3.37815e-08 -3.74786e-09
-3.09997e-06 3.46125e-06 2.2601e-06
-2.0647e-06 3.35554e-06 2.08893e-06
-3.78338e-07 9.55341e-08 -1.85206e-08
-3.01781e-07 4.25478e-08 6.30871e-08
9.5481e-08 5.48949e-08 -1.35024e-08
7.98538e-08 2.9191e-08 1.02549e-08
1.59849e-12 2.13194e-12 1.23956e-11
-1.90845e-07 1.1672e-08 -1.16522e-07
-3.5177e-07 4.66167e-08 -1.15111e-07
4.57754e-12 2.11973e-12 1.25328e-11
-7.32751e-12 8.88149e-12 1.37008e-11
1.59937e-12 7.15617e-13 7.40164e-12
9.61144e-09 1.19354e-08 6.73661e-10
4.93505e-09 1.02098e-08 1.246e-09
1.41325e-12 1.06115e-12 3.41373e-12
4.53131e-09 3.16359e-09 -3.52353e-09
-2.27661e-11 3.12122e-08 1.46695e-08
-6.0867e-07 1.11682e-06 1.99438e-07
-6.13634e-07 8.58951e-07 1.2076e-07
-2.45093e-09 2.53397e-08 1.33762e-08
2.04115e-08 9.28528e-08 -1.17169e-08
3.45639e-08 9.87895e-08 -1.61523e-08
3.36395e-09 4.84585e-09 4.69488e-11
-1.41396e-12 1.10714e-12 3.83461e-12
1.52604e-07 2.40683e-07 -8.26779e-08
1.67558e-07 1.31946e-07 -1.5009e-08
4.19932e-08 1.26891e-07 -4.4287e-08
-3.55048e-12 7.02959e-13 -7.40177e-12
4.16725e-05 3.16005e-05 4.35606e-05
3.40499e-05 2.98718e-05 3.80943e-05
-5.91886e-12 7.23438e-13 -1.17764e-11
1.3291e-10 1.36116e-10 1.32631e-10
7.29234e-05 3.69525e-05 -4.35752e-05
2.11806e-10 2.0443e-10 1.99868e-10
1.85559e-11 1.32956e-11 3.26038e-11
3.62546e-11 1.2007e-11 3.90393e-11
1.63348e-08 1.14735e-08 -5.28184e-09
3.17272e-11 2.00854e-11 4.23589e-11
7.72563e-07 1.73406e-06 -3.16787e-07
1.18468e-06 1.13526e-06 -1.28574e-07
1.84714e-11 2.80712e-11 4.44299e-11
-1.41768e-12 1.36347e-11 7.1607e-12
-7.3356e-12 7.46912e-12 1.25177e-11
-7.10818e-12 3.20133e-12 8.81793e-12
3.69704e-06 8.12124e-07 -4.69747e-07
4.95182e-06 1.23448e-06 -1.93631e-06
-4.96151e-07 4.76993e-07 2.51793e-08
-2.33297e-08 4.68711e-08 4.8819e-09
1.49589e-07 5.28654e-08 -2.06112e-08
-5.05832e-10 4.42857e-10 1.22991e-10
-2.72499e-10 4.51197e-10 4.62939e-11
-1.08936e-06 1.60188e-07 1.31236e-07
-1.30752e-06 3.81294e-07 -4.58264e-07
-2.60703e-07 8.08974e-08 1.25354e-08
-3.36712e-07 5.068e-08 -9.11414e-08
-9.946e-12 2.23725e-10 -2.10789e-10
-6.24105e-08 5.17731e-08 1.5279e-10
9.96287e-09 5.08953e-09 -1.55998e-09
1.43164e-08 6.08369e-09 -4.20898e-09
-6.95078e-08 7.07474e-08 4.83929e-09
2.45072e-07 1.04627e-06 2.66837e-08
3.78937e-07 1.09689e-06 -4.46562e-10
1.52927e-07 7.80394e-07 3.01868e-08
1.41927e-12 1.77265e-12 5.22346e-12
3.74785e-06 8.13165e-07 -6.57951e-08
4.50758e-06 9.943e-07 -1.16989e-06
-2.58913e-07 2.58429e-06 -4.3647e-07
1.41819e-12 4.87184e-13 2.45811e-12
4.8946e-07 1.03529e-06 1.77112e-08
1.48121e-06 5.58658e-06 3.09078e-06
2.76918e-06 2.86014e-06 1.16231e-06
7.39666e-06 5.81511e-06 2.59168e-06
3.62553e-09 4.32927e-09 1.58828e-09
3.48901e-09 7.62055e-09 1.51519e-09
-1.73832e-08 1.92912e-07 1.96722e-08
-4.83295e-09 1.18778e-07 1.36546e-08
1.88221e-08 8.57655e-09 2.05366e-09
9.07859e-09 8.95028e-09 2.81918e-09
2.58482e-07 8.69116e-08 -4.93028e-09
3.9975e-07 1.68429e-07 6.36024e-08
-4.27122e-12 2.14388e-12 1.14513e-11
-6.70892e-12 2.09383e-12 9.42183e-12
6.52654e-11 3.36953e-11 -1.1115e-10
3.18213e-11 2.81804e-11 -7.76193e-11
2.47539e-11 3.68018e-10 5.84122e-10
-3.55267e-12 1.89715e-10 3.57994e-10
1.6347e-11 2.71225e-10 4.72232e-10
4.06107e-09 1.98926e-09 1.42018e-09
6.41155e-09 3.89269e-09 -1.00101e-09
9.39903e-09 4.77855e-09 8.6315e-10
6.52318e-11 9.6411e-11 -1.22526e-10
2.13176e-11 4.10904e-11 -5.27618e-11
-6.45218e-10 1.97982e-08 -1.1593e-08
3.33867e-09 1.42563e-08 -8.78222e-09
-7.3801e-08 1.19046e-06 -2.1941e-07
-3.21521e-07 1.09998e-06 -2.10174e-07
4.2659e-12 2.53406e-11 -3.08495e-11
8.03392e-09 1.63971e-08 -5.79448e-09
-2.45622e-11 2.16858e-11 2.09716e-11
7.82825e-12 1.4812e-11 -2.51893e-11
-2.61749e-07 1.3234e-06 -5.3225e-08
-9.42703e-10 1.24053e-08 -9.24261e-09
-1.12864e-09 1.76055e-08 -1.25686e-08
3.88895e-05 2.70819e-05 2.36409e-05
1.86339e-07 8.10285e-08 7.06796e-08
0.000137487 1.21303e-05 -3.86602e-05
0.00018456 1.71788e-05 -9.18075e-05
0.000116669 2.08166e-05 -0.000100543
0.000155587 1.90534e-05 -7.86042e-05
2.09638e-07 8.70442e-08 8.93836e-08
3.59288e-05 2.54214e-05 2.1775e-05
2.87017e-05 2.66501e-05 2.17716e-05
7.02685e-12 9.59164e-12 -1.84674e-11
-6.98353e-12 2.18529e-12 -2.37501e-11
-3.66202e-12 2.10588e-12 -1.64723e-11
9.94593e-12 1.19075e-11 -2.58222e-11
6.78082e-12 6.05014e-12 -1.48737e-11
3.20162e-09 3.14161e-09 1.90437e-10
3.27827e-09 5.24603e-09 2.00831e-09
-8.39077e-08 1.85519e-08 1.35204e-08
-2.54259e-05 8.96449e-06 -8.23782e-06
-2.029e-05 1.74765e-05 -2.02057e-05
-7.62173e-08 1.66792e-07 -4.60972e-08
1.38108e-09 3.00829e-09 -1.89914e-09
4.00498e-09 3.36982e-09 1.31372e-09
1.9896e-09 5.74402e-09 -3.01086e-09
2.89213e-09 4.62314e-09 -2.82936e-09
1.077e-10 2.00798e-11 8.87996e-11
1.00611e-10 7.95184e-11 1.66444e-10
8.98096e-11 4.80461e-11 1.22701e-10
2.77754e-07 4.02382e-07 -2.53645e-08
3.54396e-07 5.7555e-07 -2.94922e-08
-6.05215e-05 3.15186e-05 -4.70176e-05
-3.85338e-09 7.10159e-09 -7.52309e-12
7.90107e-12 1.47087e-10 2.74898e-10
-1.08923e-10 1.86779e-10 3.29144e-10
1.24137e-07 3.54353e-07 -3.86202e-08
1.683e-07 3.57287e-07 -4.38683e-08
-2.30745e-09 3.25106e-09 -1.92934e-10
2.41842e-10 3.17098e-10 -6.60974e-11
-4.04056e-09 4.57896e-09 -6.73798e-10
-2.40165e-05 3.55375e-06 1.99715e-06
-3.76767e-10 2.38632e-09 -1.25299e-09
-9.55044e-10 2.40467e-09 -1.3849e-09
-7.02429e-06 1.87155e-07 -8.78985e-07
3.24549e-08 2.41605e-08 -4.85575e-09
-1.70602e-05 7.41543e-06 8.4965e-06
-1.42155e-12 2.0966e-11 -7.74613e-12
9.86888e-08 3.56968e-08 9.24627e-09
7.77604e-08 3.39444e-08 1.89482e-09
1.42094e-12 2.67041e-11 -1.33273e-11
1.42457e-12 1.80947e-11 1.10419e-11
2.69408e-10 3.64081e-10 -8.55613e-11
-1.42133e-12 1.92164e-12 -2.95153e-12
1.37709e-12 2.03648e-12 -4.66536e-12
5.92624e-09 4.04744e-09 4.24169e-10
4.50178e-09 3.87365e-09 -6.92672e-11
2.74004e-07 2.56251e-07 1.22155e-07
5.0972e-05 4.8127e-05 5.99305e-05
4.37995e-05 4.76516e-05 5.48116e-05
4.08937e-12 6.88397e-13 -6.2031e-12
5.96153e-13 7.10549e-13 -1.14706e-11
1.90371e-05 2.62152e-05 2.90932e-05
3.44308e-09 1.70281e-09 1.03938e-09
3.66584e-09 2.32812e-09 6.50492e-10
1.4153e-12 1.07537e-11 7.59699e-12
-2.90667e-10 2.91036e-09 2.58312e-09
-4.20465e-10 3.59367e-09 2.92659e-09
-3.62045e-08 6.57604e-07 5.99361e-08
-2.56821e-09 1.75063e-09 1.28138e-09
2.4777e-10 2.93265e-10 3.52652e-10
-7.66227e-05 4.77036e-05 -7.32951e-05
-5.72101e-05 3.78087e-05 -5.38957e-05
-1.00488e-07 6.07648e-07 5.5102e-08
1.88815e-07 1.91936e-07 -3.27269e-08
4.40073e-09 4.43835e-07 6.20226e-08
4.26095e-12 2.60852e-11 -8.57348e-12
8.8578e-08 1.11651e-07 -1.78029e-08
-2.11779e-05 3.59684e-05 -3.54479e-05
8.67296e-08 7.27863e-08 -7.81398e-10
4.80929e-08 2.56624e-08 1.30473e-08
7.63568e-11 1.22857e-10 -7.74296e-11
-1.41839e-12 2.37957e-12 1.68377e-12
2.12673e-12 7.38931e-13 -5.6642e-12
-7.06373e-13 2.13415e-12 -1.1037e-11
-1.33551e-05 2.56734e-05 -2.50915e-05
-1.41948e-12 3.83084e-12 3.45604e-12
6.64727e-08 2.40895e-08 -1.2068e-08
-1.71927e-13 -1.28745e-13 -4.41141e-15
3.72867e-10 4.29249e-10 5.25987e-10
4.29604e-12 3.35284e-12 1.04148e-11
1.92521e-05 2.37279e-05 -1.66385e-05
7.17917e-09 4.44316e-09 -3.93794e-09
8.53767e-06 2.70062e-05 -2.2192e-05
0.000967851 9.27169e-05 -0.000612773
0.000508319 0.000118123 -0.000660002
4.58662e-11 1.08834e-10 1.20047e-10
-0.000143546 9.77601e-05 -0.000241053
8.44007e-11 1.32135e-10 1.44073e-10
-1.44962e-09 9.42777e-10 -1.95777e-10
-1.25496e-09 7.91659e-10 -2.40933e-10
9.9635e-11 2.1333e-10 2.00854e-10
4.25304e-08 7.54761e-08 -1.73341e-08
7.10018e-12 8.86886e-12 -1.8593e-11
5.18727e-09 2.9217e-09 5.90224e-10
5.25083e-05 5.35243e-05 -5.57622e-05
4.25269e-09 2.37512e-09 8.01185e-10
5.04874e-09 2.24932e-09 1.87481e-09
3.71379e-09 1.86112e-09 1.20842e-09
4.33696e-05 5.54995e-05 7.72984e-05
-1.33146e-09 7.33298e-10 -1.26292e-10
-1.06489e-09 6.05533e-10 -2.54585e-10
-1.00659e-08 4.30602e-09 7.26718e-10
-1.72007e-08 1.02469e-08 -7.8716e-10
5.06988e-05 6.02894e-05 8.14361e-05
3.21443e-06 1.02732e-06 -5.74017e-08
8.90164e-07 1.68846e-06 -8.47586e-07
9.96681e-07 1.39034e-06 -6.13288e-07
0.000543713 9.4196e-05 -0.000504966
0.000556721 7.36974e-05 -0.000324292