# vtk DataFile Version 2.0
S, Created by Mohamad Ibrahim Cheikh
ASCII
DATASET UNSTRUCTURED_GRID
POINTS 10490 double
-223.577 20.3389 -34.7913
-223.73 23.2848 -32.7649
-130.492 -29.3107 69.283
-194.384 -37.8827 -41.0227
-207.473 29.5066 40.0418
-235.878 27.3974 13.4742
-191.275 -39.7119 -41.0819
14.4122 -3.14076 87.7992
-191.073 39.2194 -41.666
-193.413 36.9303 -42.4287
-251.147 3.21218 -3.38071
-251.007 5.46228 -0.714863
-204.327 29.2982 -42.1214
18.6119 -1.5288 87.7454
-201.23 30.3633 -43.1793
-151.339 68.7383 -14.6618
-148.549 69.9481 -12.2315
241.381 21.7605 -11.7087
240.378 24.3445 -8.7823
39.655 72.9 -47.2976
43.488 72.1943 -47.9629
45.439 -3.2072 -86.4924
49.2991 -1.51657 -86.2795
-145.563 -45.4953 -55.4983
-142.058 -46.9199 -55.4239
-191.797 -27.3649 49.9141
-189.472 -30.043 49.4592
-64.3396 -67.8364 51.3363
-66.4803 -66.0165 53.336
-121.229 -41.6801 -64.8651
-205.493 44.6062 24.1736
-208.434 41.8702 25.9216
-64.8761 -22.5999 81.9631
-61.2414 -23.9343 81.9266
44.3199 4.17549 86.5221
-201.398 -44.9176 27.5766
-52.5077 82.5537 -24.3174
-49.4027 82.207 -26.2146
-109.541 -78.4117 -11.2484
-105.515 -79.2425 -10.0782
-195.498 42.6388 35.3085
-200.947 -43.0031 30.8388
-54.4285 -15.3337 84.5351
3.52195 8.26462 87.6024
226.254 36.0725 -13.2453
223.494 37.2788 -15.4582
-146.999 22.42 -67.7921
-143.837 23.6793 -68.1932
-167.021 -43.0238 -49.7757
-163.503 -43.4787 -50.8
-215.267 -7.15857 -44.9374
-215.167 -3.16273 -45.4519
-105.637 -17.6238 77.8922
-104.1 -21.1601 77.2625
-247.96 -12.523 7.72451
-247.222 -12.2246 10.5722
-226.224 -18.8465 33.5135
-129.025 -40.8338 -63.5487
238.447 4.07556 -27.6834
236.191 2.11804 -30.1593
30.6879 -3.73972 -87.2623
26.7153 -2.00824 -87.4791
-224.961 -22.5401 32.2502
-47.6605 -75.872 41.3442
-235.553 -26.7706 15.3058
-110.265 51.189 -60.2921
-237.919 -25.2892 13.1989
-16.8408 -1.47986 -87.79
-20.0201 -4.0202 -87.6286
25.3065 7.51541 -87.2302
27.374 3.70042 -87.3989
25.4559 1.70737 -87.5314
45.974 -6.32791 -86.2855
-242.159 -16.9749 16.6259
249.587 -5.369 -9.40943
249.11 -2.30252 -11.8807
-169.141 48.1661 43.8341
30.4557 -13.4843 -86.3053
-165.516 47.9366 45.7388
-244.371 -14.4431 14.9729
243.986 6.92798 20.1943
244.544 3.56439 20.2422
-218.53 -34.2528 26.908
-142.146 -69.4109 21.2691
-139.63 -70.7398 18.7863
-221.096 -32.0564 27.048
-157.971 -59.7999 33.3579
-205.038 32.4624 39.2828
-154.319 -61.3637 32.602
21.326 7.36513 87.3732
-119.072 18.514 75.2689
-116.402 20.5989 75.2383
25.578 -59.0326 64.6456
29.1128 -57.6616 65.6915
-134.549 55.0469 -49.9743
-136.839 52.5578 -51.8574
-177.093 57.9182 23.4489
-176.696 59.3916 19.8538
-69.9183 65.2714 -53.7135
-62.7547 16.9317 -83.5175
-66.3706 16.9204 -83.1768
-66.3836 66.8145 -52.3478
124.462 57.7462 50.1282
121.029 58.3524 50.4544
-132.441 -69.8471 26.7934
-132.815 -68.0011 30.9873
-188.865 35.1194 46.2983
-185.118 37.2899 46.4535
-232.726 13.174 -30.65
-59.8168 75.2283 40.5788
-61.1336 76.7415 37.3789
-231.927 16.7982 -29.6017
-175.271 -46.9572 -42.1659
-178.79 -11.2304 60.8629
-181.799 -8.37574 60.2282
-195.821 53.7529 12.6466
-198.374 52.0661 14.6693
-195.137 -6.40398 -55.1457
-196.11 -2.36429 -55.0439
-155.756 25.05 64.3921
-159.464 22.4849 64.2276
-196.21 -54.5515 -7.39862
-193.182 -56.048 -5.79656
-91.1438 75.2301 -32.6707
-87.1606 75.6133 -33.1138
-39.2314 -78.9675 -36.3277
-42.7324 -77.6546 -38.6031
-35.708 20.5597 -84.6475
-119.25 -59.0778 -50.1277
-116.055 -58.3902 -51.8228
-103.565 -58.9117 54.4082
-107.46 -57.2204 55.2814
-176.079 46.907 -41.8082
26.9042 13.9969 -86.3682
23.7904 15.783 -86.1719
-175.604 44.5877 -44.5038
-89.4451 -39.5915 72.0903
-93.3147 -38.4541 72.1055
-1.70711 -75.0126 -46.0081
2.63193 -75.2489 -45.6154
-158.022 -33.1968 -59.8729
-154.736 -36.6324 -58.9125
25.7218 72.8899 48.4774
28.1995 70.8818 51.2094
-166.583 38.8111 53.2941
-168.994 36.4371 54.0357
126.645 60.2637 46.3534
124.999 62.2379 44.2437
55.9205 20.2569 83.3715
-158.151 12.6449 67.2452
-155.546 9.85661 68.4449
-43.9752 73.4925 -45.8922
70.9465 53.0766 -65.6554
-41.2986 75.1669 -43.418
222.064 -27.8283 -30.5324
225.276 -26.0124 -29.2252
-17.3994 79.6097 -37.003
-20.1475 78.3444 -39.4519
247.477 -7.06407 13.9944
245.671 -9.07239 16.5073
-182.893 19.8545 57.0485
-181.351 22.6975 56.5888
-55.5694 68.6437 51.5167
-53.3144 70.5131 49.2331
-221.673 26.3871 -32.1188
245.289 -12.7014 14.7129
-123.337 -44.6601 -62.3464
-128.466 -46.9005 -59.3616
-126.783 -44.2469 -61.7922
-219.064 -11.0535 41.7915
-206.369 49.8788 -6.48132
-208.054 48.5164 -9.5177
-173.562 -35.1393 53.1145
-196.133 -34.8661 -42.6458
-56.8392 10.6366 85.0607
-99.4944 80.6753 4.85171
-149.825 -21.4682 67.3414
-153.215 -21.7141 66.3208
-105.628 79.8285 2.32943
-103.278 80.0541 5.42809
-208.26 -1.82543 -49.3012
-211.702 -0.426539 -47.5054
6.93172 76.5602 -43.3204
8.61377 74.8265 -46.2159
-17.2203 86.0365 -17.4759
-20.8338 85.3163 -20.2972
12.38 74.3149 -46.9311
-209.318 34.9076 -34.0774
-209.429 37.4817 -31.1332
-243.669 12.2903 -17.991
-205.996 40.091 -30.6833
-237.952 16.7294 23.0649
-240.124 13.5354 22.3944
-198.671 34.6949 41.3271
-44.0913 -51.8603 -69.401
-47.9364 -52.1787 -68.848
-64.6307 78.4152 -32.9188
-61.5167 79.4036 -31.237
-198.905 37.6909 38.4663
-195.38 39.9844 38.3623
193.193 51.8478 -22.051
191.208 51.6124 -24.5776
-17.4351 72.6356 -49.3036
-16.0794 70.9109 -51.8072
-160.715 -8.67765 67.1297
-158.261 -5.14448 68.1988
-159.18 -12.1849 67.0326
-155.587 -13.9498 67.7178
-181.217 -39.3683 -46.6215
-187.068 -34.8943 -47.3497
234.201 -8.19815 31.0077
231.367 -8.83963 33.3482
-185.724 -37.8055 -45.7352
-220.423 -36.3319 -21.8074
-223.2 -33.1948 -23.2994
-74.2724 69.6066 47.1544
-199.251 43.3698 -31.6618
-202.415 40.5152 -32.9595
-79.0119 71.9563 42.4497
-75.1736 71.7784 43.5889
-199.863 -47.1005 -25.2002
-196.405 -49.1627 -24.582
-156.238 -38.5638 57.1688
-155.216 -34.6053 59.9741
-162.912 56.2576 -36.4655
-159.765 58.0863 -35.2839
245.94 -16.0778 8.95233
246.756 -13.0534 10.9095
-202.192 25.1233 -45.9095
246.469 -16.6405 5.45933
-222.675 -40.7295 -3.81023
-219.563 -42.6765 -4.53622
-225.913 36.4536 -12.9115
-224.087 36.2126 -16.8756
-228.9 -34.8682 10.6499
-231.376 -33.5773 7.89135
-225.472 -37.7616 9.69471
119.577 74.8254 19.8638
-172.164 -51.1022 -38.7774
115.382 75.6404 19.8145
47.9123 12.1634 -85.5278
51.4998 10.7685 -85.4595
-180.221 -22.176 57.2339
-179.949 52.3209 -32.2806
-165.453 0.847225 66.2707
-168.576 2.8245 65.2442
-181.02 -17.4182 58.5556
36.4523 -59.755 63.3298
37.7865 -57.2082 65.547
-159.985 -59.9394 -31.9007
-182.767 -21.7981 -56.3843
-184.313 -18.0307 -57.0946
-11.9399 15.0479 -86.6032
-188.59 -54.9978 19.1014
-192.466 -53.1211 19.6701
-145.94 9.33436 -71.0584
-143.739 12.1369 -71.1841
-174.371 52.4189 35.6895
-173.432 50.7167 38.591
-187.181 39.7155 -43.3259
-231.498 33.4957 -7.79795
-229.093 35.9699 -4.95958
-234.904 30.871 -5.94068
241.404 7.72088 23.4444
239.892 10.8368 24.102
240.609 13.4018 21.8298
-138.879 -61.8301 -39.4927
-138.123 -60.1627 -42.2933
-141.496 -58.2506 -43.5855
-200.351 -41.1645 -33.6908
-218.716 20.1153 -38.5059
-52.6865 9.03431 85.5718
-56.6797 -81.183 27.568
-60.1941 -81.4608 25.7786
-152.608 56.17 41.6848
-153.388 58.0538 38.6421
-189.413 -9.89834 -57.0398
-186.066 -8.87988 -58.5367
64.9119 -8.70967 84.5711
67.8937 -7.07591 84.4369
-196.835 -37.2196 40.1903
-200.415 -34.61 40.356
-180.668 -48.2456 -37.6845
-174.532 -52.0916 -36.0703
-215.618 -38.5089 23.856
-218.655 -36.4149 23.7603
-178.254 -50.9818 -35.4216
-121.576 47.9355 -60.304
-71.3168 59.5845 59.7579
26.8711 -68.3009 54.6862
24.8086 -66.5879 56.8744
-87.1954 -8.59268 -82.0934
-84.0152 -6.28635 -82.7061
-32.1276 85.8553 -15.7003
-35.7815 85.3711 -17.2923
-75.1214 60.0926 58.6684
-117.641 48.9669 -60.4308
67.0925 -10.9681 -84.0987
63.3433 -11.574 -84.373
-122.334 44.729 -62.5386
-76.1729 64.0927 -54.0902
-79.6906 64.2745 -53.2474
-210.937 -46.4386 -11.832
-207.911 -47.2774 -14.7161
-70.3835 -66.9055 51.5864
-82.4433 61.7751 -55.6389
181.005 57.5727 -20.4507
187.793 54.7426 -20.7268
-57.9864 -57.7689 -63.2067
-60.2483 -59.9494 -60.8742
185.03 56.5059 -18.9617
-52.2171 4.92312 85.9415
170.803 -60.94 -21.4145
166.657 -61.8363 -22.7991
-242.16 -11.2307 20.9366
-241.443 -7.71444 23.3971
231.623 25.861 -22.5153
229.371 25.1803 -25.8603
225.985 27.6875 -26.9258
-235.384 -18.9695 -24.5116
-234.85 -16.6287 -26.7378
-226.067 27.1629 -27.3716
-222.951 28.4615 -29.1253
-220.768 31.3762 -28.1507
-250.634 -7.29497 -0.178455
-176.048 45.3065 43.5526
58.6708 51.2609 -68.5192
59.7515 48.4321 -70.436
128.108 68.3806 32.5392
131.601 68.3048 30.9536
-176.935 47.6148 40.5464
-181.037 46.7542 39.3122
18.705 -86.418 15.2677
142.034 69.3643 -21.5108
141.096 68.3962 -25.0717
23.2385 -86.1703 15.8921
181.098 -44.0245 42.3149
25.6368 -86.6619 12.3796
-189.026 21.6433 -53.8611
-189.446 17.8973 -55.0424
-212.326 -45.0145 14.0794
-120.849 -47.0037 -61.2096
-24.3205 -37.2735 79.2608
52.3185 18.5331 -84.056
55.8323 16.7461 -84.1542
-25.2905 -41.1225 77.2957
-119.137 -6.53639 -77.224
-115.757 -7.75236 -77.7391
-200.05 16.4725 50.7248
-215.148 -43.2643 14.3201
-153.431 33.0404 61.402
-156.856 31.3582 61.2244
-157.696 28.2083 62.4796
-79.9675 -83.4309 0.602965
-63.2065 72.8906 -44.0663
-62.4959 70.8444 -47.4013
-79.8045 -83.3553 -4.02105
-209.642 -18.6817 44.88
-59.9592 71.4703 46.8599
-205.671 -19.6744 46.6694
-191.283 -46.3885 33.3536
-190.154 -45.0078 35.9362
-195.132 47.3241 29.0293
-192.216 -42.6381 37.4504
-97.688 19.8097 78.6335
-94.0976 20.9941 78.8619
-195.846 -41.8725 35.9833
-247.68 -8.81214 12.4833
188.065 -42.0218 40.5956
184.93 -44.2656 39.9694
-127.183 75.5056 7.90813
-123.553 76.0365 9.66994
48.8693 1.69088 86.3062
130.446 15.5929 -73.6041
-179.709 46.5231 -40.3195
198.595 13.1803 52.3604
200.49 9.43371 52.2853
113.35 74.8976 23.6923
109.609 75.3493 24.4047
149.561 63.7432 -30.6954
145.732 65.3544 -29.5406
-166.875 -45.67 -47.4227
129.844 19.3567 -72.8369
-209.804 43.7073 -21.0851
-206.943 46.1306 -19.3088
126.469 20.209 -73.3308
-61.8915 -0.327009 85.2931
-59.182 2.596 85.4895
[...]
POINT_DATA 10490
VECTORS F double
1.2814e-08 3.05375e-08 7.76868e-09
1.31202e-07 9.18237e-08 -4.44303e-08
1.33123e-07 6.96743e-07 3.25459e-07
5.86445e-08 -7.23114e-09 -2.73442e-08
2.88971e-07 2.64685e-07 -1.17333e-08
1.85466e-07 1.99375e-07 -7.8936e-09
8.57725e-08 2.70402e-08 -7.50311e-08
-1.84845e-06 2.15924e-06 1.14385e-07
9.8821e-07 7.56622e-07 1.57368e-07
1.08763e-06 6.4999e-07 -4.12583e-08
1.2632e-08 7.56244e-08 -4.30491e-08
1.11001e-08 5.96324e-08 -2.15813e-08
9.8439e-08 3.68448e-07 1.97816e-07
-2.29185e-06 3.73043e-06 1.2451e-07
1.41851e-07 1.1464e-07 -3.22914e-10
3.3801e-06 6.1765e-07 -1.37583e-06
4.39024e-06 7.45484e-07 -2.2647e-06
-1.11513e-08 2.10829e-08 1.10343e-08
-1.30754e-08 2.04474e-08 1.28617e-08
-2.85254e-05 6.30895e-06 6.79592e-06
-2.765e-05 5.37773e-06 5.02521e-06
-3.2628e-06 1.86331e-06 -2.78953e-07
-2.96739e-06 1.35344e-06 -2.31375e-07
3.11459e-08 2.24475e-07 -1.94017e-07
5.78553e-08 2.51323e-07 -2.30917e-07
1.35827e-08 1.66532e-07 9.76888e-08
-1.70379e-09 1.42167e-07 8.55581e-08
-4.3958e-08 1.82467e-07 2.34369e-07
-1.83618e-07 1.40431e-07 1.45797e-07
2.54683e-07 2.15559e-07 -1.96786e-07
5.82012e-07 2.66016e-07 1.14864e-07
3.8252e-07 2.92691e-07 -9.61981e-08
1.06686e-07 2.93733e-06 8.20256e-07
-3.29484e-07 1.50586e-06 4.09771e-07
-1.95909e-06 2.95739e-06 -1.98619e-08
1.34705e-08 2.86549e-08 5.87186e-08
0.000103418 2.12304e-05 4.4733e-05
0.000113544 2.51853e-05 5.27806e-05
3.94415e-08 7.1833e-10 -5.20275e-08
3.37813e-08 -2.51746e-09 -2.35049e-08
6.5197e-07 3.60741e-07 6.32505e-09
2.58348e-08 2.92648e-08 6.14189e-08
3.30697e-07 2.74e-06 5.23071e-07
-1.45416e-06 3.48991e-06 -3.22091e-07
-2.22257e-08 1.32314e-08 -1.04475e-08
-3.76527e-08 3.39339e-08 1.51856e-08
1.32037e-06 8.97967e-07 -5.35543e-08
1.10706e-06 1.81874e-06 3.45649e-07
-5.38536e-08 1.06177e-07 -6.96507e-08
-4.70558e-08 1.19541e-07 -8.37705e-08
5.46706e-08 1.5134e-07 -5.61722e-08
7.21954e-08 1.60494e-07 -5.30113e-08
9.61385e-07 2.3732e-06 6.96583e-07
1.00942e-06 2.28899e-06 7.93401e-07
-4.12772e-08 1.00253e-07 3.1435e-10
-2.90569e-08 7.54622e-08 4.06859e-09
5.81722e-08 9.81665e-08 1.03281e-07
1.79555e-07 3.47336e-08 -6.69512e-08
-1.83988e-08 1.21853e-08 -1.76097e-08
-1.74158e-08 7.4235e-09 -1.61782e-08
-2.55926e-06 3.03478e-06 -2.40249e-07
-2.32756e-06 3.96981e-06 -1.78159e-07
1.18676e-08 8.79209e-08 7.15852e-08
-3.79136e-08 5.27145e-08 9.13871e-08
-1.17083e-08 1.26638e-08 9.06506e-11
1.43732e-05 6.46589e-06 2.27139e-06
-2.16444e-08 3.7458e-08 2.40062e-08
-5.24936e-07 4.98105e-06 -7.16373e-08
1.50207e-07 3.82481e-06 -1.79676e-07
-6.11567e-07 7.19037e-06 5.97773e-07
-3.49574e-06 5.49738e-06 9.87079e-08
-2.28225e-06 4.13484e-06 -6.06088e-10
-1.23864e-06 2.15452e-06 -2.38805e-07
5.14006e-09 4.56568e-08 5.57803e-08
2.51675e-09 1.266e-08 9.49177e-10
-3.40065e-09 4.43809e-09 -9.59021e-09
3.06589e-07 4.00408e-07 -2.9514e-07
9.88073e-07 1.57363e-06 -2.03175e-07
4.5681e-07 5.75363e-07 -4.00625e-07
6.27207e-10 2.95117e-08 2.97235e-08
-9.46017e-09 1.04405e-08 1.04121e-08
-2.71001e-09 1.07405e-08 2.11925e-09
1.88962e-08 1.60123e-08 3.9172e-08
2.53848e-08 5.80016e-09 3.97013e-08
1.29242e-08 3.16704e-09 2.36875e-08
1.54347e-08 1.85615e-08 3.74461e-08
3.71725e-08 3.29475e-08 8.0616e-08
2.34819e-07 3.08251e-07 -1.04675e-07
3.85157e-08 2.80508e-08 7.5118e-08
-4.04889e-09 4.64283e-06 -3.9125e-07
2.19862e-06 2.85219e-06 -2.75732e-07
2.01107e-06 3.34427e-06 -5.3468e-07
-2.47736e-08 1.81041e-07 1.66521e-07
-6.47148e-08 2.6712e-07 2.37979e-07
5.26303e-06 3.39112e-06 2.00049e-06
6.78878e-06 2.71374e-06 5.57184e-07
4.18221e-07 3.49623e-07 -4.76858e-07
1.34471e-06 6.10226e-07 -3.60236e-07
3.07402e-05 2.16929e-05 2.14616e-05
2.33819e-06 1.39144e-06 6.69897e-08
2.08297e-06 8.91758e-08 -1.85352e-07
2.96704e-05 2.43627e-05 2.64889e-05
-1.0135e-06 3.64985e-07 -1.12377e-07
-1.07848e-06 3.95924e-07 -1.41179e-07
2.95602e-09 1.25398e-08 3.44784e-08
-1.26619e-09 1.74929e-08 3.77248e-08
1.03855e-06 5.58831e-07 9.47853e-08
1.01572e-06 7.09874e-07 -7.42816e-08
6.25561e-08 8.64276e-08 -2.10053e-08
4.95164e-05 2.6163e-05 -3.95665e-05
4.99949e-05 2.58596e-05 -4.30806e-05
3.57559e-08 8.90926e-08 1.62588e-08
4.49761e-08 -2.27897e-08 2.49011e-09
4.41094e-07 3.80544e-07 2.28856e-07
2.18293e-07 1.41517e-07 1.00352e-07
6.96094e-07 3.79268e-07 -2.92434e-07
8.38632e-07 4.00091e-07 -3.15789e-08
-7.19211e-09 1.21025e-07 -1.09392e-08
1.30022e-07 1.6789e-07 -6.39268e-08
3.73051e-07 2.50953e-06 -8.65789e-07
1.30589e-06 9.5663e-07 6.20504e-08
7.74635e-09 -1.70848e-09 -1.2557e-08
-1.64136e-09 -4.35092e-10 1.09033e-08
2.83888e-05 8.14013e-06 9.04767e-06
2.98266e-05 9.77519e-06 1.27091e-05
-4.43739e-08 5.04649e-08 -1.0383e-07
-3.05884e-08 6.49841e-08 -1.26577e-07
1.80703e-06 1.12814e-05 2.64677e-06
1.28152e-07 1.59749e-07 -2.25596e-07
1.24745e-07 1.86052e-07 -2.43833e-07
3.69542e-08 1.43137e-07 1.63596e-07
8.27569e-08 2.31837e-07 2.59663e-07
2.61787e-06 7.84609e-07 -4.69549e-07
-1.93897e-07 6.69603e-06 1.07777e-06
-2.3141e-06 3.50938e-06 5.64548e-07
6.98407e-07 4.87139e-08 -2.88589e-07
2.27743e-07 5.59912e-07 3.42093e-07
2.89132e-07 8.80649e-07 5.15463e-07
-6.31242e-08 8.19234e-08 -1.33283e-07
-6.20392e-08 5.90227e-08 -9.78045e-08
1.25918e-07 2.42585e-07 -1.7519e-07
2.61124e-08 1.53456e-07 -1.03818e-07
-4.86222e-05 1.92379e-05 -2.57673e-05
-4.25202e-05 2.12284e-05 -2.65168e-05
2.75258e-06 1.2368e-06 1.52678e-07
2.38139e-06 1.43147e-06 -5.344e-08
-5.35e-07 1.64054e-07 -3.43379e-08
-1.42896e-06 3.08267e-08 4.50893e-07
-8.27377e-07 6.34854e-07 -8.63109e-08
9.46525e-07 1.05748e-06 7.36895e-08
2.22486e-07 2.74425e-07 2.23822e-08
4.50614e-05 4.26218e-05 6.29683e-05
-5.93938e-06 3.08621e-06 1.70917e-06
4.79026e-05 4.16971e-05 6.66089e-05
-2.36611e-09 7.77704e-09 -9.19548e-09
-1.54188e-09 6.10088e-09 -6.88541e-09
7.6021e-05 5.39331e-05 0.000111657
6.95702e-05 5.64004e-05 0.000107651
-6.35228e-10 -4.49295e-10 1.14956e-09
-1.14189e-09 7.03349e-10 2.46888e-09
3.74262e-07 5.58678e-07 -4.75377e-08
3.07682e-07 6.19349e-07 -1.27697e-07
4.03258e-05 3.27116e-05 -3.82612e-05
3.9506e-05 3.33103e-05 -4.24701e-05
2.06575e-07 7.91802e-08 -1.09501e-07
-3.85824e-09 -1.5949e-09 6.49658e-09
2.46594e-07 1.96617e-07 -2.00566e-07
8.28677e-09 1.32116e-07 -1.06579e-07
2.29028e-07 3.64967e-08 -8.36659e-08
-1.95392e-09 1.3496e-07 3.44422e-08
5.80691e-07 3.09505e-07 1.18194e-07
6.21538e-07 3.35111e-07 4.48014e-08
9.24747e-08 1.3729e-07 1.27824e-07
9.2696e-08 4.68302e-09 -5.60236e-08
1.8435e-06 3.88313e-06 -3.34759e-07
3.60188e-05 5.52109e-06 -1.3726e-06
-4.36792e-08 2.6894e-07 7.3839e-08
-7.6714e-08 3.70478e-07 9.96003e-08
3.14235e-05 5.31459e-06 -7.67544e-06
3.359e-05 5.8409e-06 -7.89582e-06
4.89092e-08 9.54707e-08 -2.88292e-08
6.90292e-08 1.93771e-07 -3.94027e-08
-2.99388e-05 2.99168e-05 5.22854e-05
-3.87672e-05 2.78028e-05 4.41298e-05
0.000285757 1.85389e-05 5.67917e-05
0.000246051 2.51225e-05 7.46752e-05
-3.87393e-05 2.16691e-05 3.30616e-05
3.06495e-07 2.29616e-07 4.71765e-09
9.07102e-07 4.91994e-07 -1.5475e-07
1.08427e-07 1.853e-07 -5.32105e-08
8.14024e-07 6.255e-07 1.48192e-07
6.95715e-08 2.09428e-07 -6.40286e-08
8.26915e-08 1.76333e-07 1.97641e-09
4.21882e-07 -1.93799e-07 4.11001e-07
4.36246e-07 3.17105e-07 -2.70891e-07
4.0149e-07 4.03979e-07 -3.40393e-07
6.57243e-05 2.34939e-05 4.01656e-05
7.00321e-05 2.22858e-05 3.97642e-05
7.07905e-07 -4.67126e-08 4.93927e-07
5.17012e-07 2.9994e-07 9.75544e-09
-7.61785e-08 3.6177e-08 3.35125e-09
-1.06797e-07 5.81448e-08 2.03819e-08
7.33604e-06 4.72873e-05 6.93473e-05
-6.77393e-06 4.35639e-05 5.98851e-05
7.29379e-07 4.21755e-07 2.68307e-07
8.94459e-07 3.50803e-07 2.80586e-07
1.83393e-07 1.56827e-07 8.18242e-08
3.0022e-07 3.71643e-07 1.61007e-07
1.03607e-07 1.0129e-07 -1.34836e-07
1.17775e-07 7.90418e-08 -1.15217e-07
1.56098e-09 9.83935e-09 1.15872e-09
1.17807e-09 9.61871e-09 1.5496e-09
8.94621e-08 6.50569e-08 -9.82556e-08
3.54731e-09 3.22906e-09 -9.7692e-09
-1.28609e-09 5.4126e-09 -6.20337e-09
3.63649e-05 1.55343e-05 -1.59181e-05
8.13373e-07 6.57633e-07 2.74134e-07
8.51372e-07 6.18095e-07 1.19653e-07
3.07436e-05 1.06742e-05 -1.10879e-05
3.47224e-05 1.52895e-05 -1.78459e-05
4.12257e-09 1.44436e-08 -3.09989e-08
2.43005e-10 7.84618e-09 -1.59285e-08
6.39764e-08 2.615e-07 1.97804e-07
1.94866e-07 2.42905e-07 2.01901e-07
1.56197e-06 1.13562e-06 8.97644e-07
1.9437e-06 1.03704e-06 6.29708e-07
1.92557e-09 6.83831e-09 5.8052e-09
6.72169e-10 7.3105e-09 6.88579e-09
3.37953e-07 2.37448e-07 -5.22849e-08
6.12713e-10 2.94609e-09 5.58822e-09
-2.86739e-08 2.02139e-08 -1.0909e-08
-2.18151e-08 1.01661e-08 3.3632e-08
3.2031e-07 2.43912e-07 2.48592e-09
4.15643e-07 3.22573e-07 1.64686e-08
1.2127e-08 -1.7021e-09 2.63415e-08
-2.64465e-09 1.1757e-08 4.05312e-08
1.59588e-09 -5.4146e-09 -1.65454e-08
-2.20809e-06 2.63194e-07 6.35901e-07
5.23325e-08 -1.99503e-08 -2.15502e-09
-2.28513e-06 3.36484e-07 3.44559e-07
6.89378e-07 1.45295e-06 2.53915e-07
6.04633e-07 9.57176e-07 1.6522e-07
1.07944e-07 3.17342e-07 1.64572e-07
1.64887e-06 5.40167e-07 -2.49836e-07
4.55428e-07 2.05869e-07 1.36574e-07
4.67228e-07 2.88707e-07 1.353e-07
1.47884e-07 3.43191e-07 1.58058e-07
-3.63106e-08 1.76293e-07 1.689e-07
-1.68082e-08 1.86526e-07 1.63982e-07
4.23805e-08 1.20213e-08 -4.86087e-08
7.04759e-08 6.55281e-08 -5.33024e-08
2.30004e-07 1.262e-07 -1.30759e-07
1.16672e-06 9.51339e-06 1.63332e-06
6.41337e-09 9.5458e-09 3.52377e-08
1.50275e-09 8.32721e-09 2.42895e-08
1.12467e-06 7.69193e-07 -1.81756e-07
7.89366e-07 1.14778e-06 5.50281e-10
1.88567e-06 1.21835e-06 -6.6151e-07
1.31295e-06 9.42996e-07 -5.16889e-07
1.11286e-06 1.08746e-06 4.08212e-07
3.68118e-07 3.09958e-07 -6.56015e-09
3.39503e-07 2.7514e-07 7.54798e-08
2.90367e-07 2.2838e-07 -2.18917e-07
-1.12053e-08 1.89347e-08 7.88946e-09
-7.56459e-09 2.37075e-08 -1.43974e-09
-7.96803e-09 2.32411e-08 -3.51637e-09
7.37923e-08 2.9652e-08 -7.81932e-08
1.32175e-08 5.66162e-08 -8.58223e-08
7.47587e-08 1.15231e-07 -1.83715e-07
-1.15634e-08 6.75095e-08 -7.40673e-08
1.34893e-07 2.10122e-07 1.59605e-08
2.94708e-06 5.97234e-06 -4.08386e-07
2.34774e-08 1.82947e-08 5.97854e-08
1.70417e-08 1.77402e-08 6.0933e-08
9.16015e-07 1.42612e-07 2.18409e-07
3.64727e-06 1.22002e-06 -6.03859e-08
1.4488e-07 2.56707e-07 -1.0345e-07
1.95225e-07 1.49527e-07 -9.86571e-08
2.05583e-07 5.23121e-07 3.45544e-08
2.68885e-08 9.50247e-07 7.69827e-08
1.93246e-08 7.202e-08 7.82837e-08
1.40754e-08 7.33283e-08 7.14447e-08
2.12591e-08 2.43448e-08 -4.36458e-08
1.86444e-08 4.64447e-09 -1.77527e-08
1.49456e-08 3.46794e-09 2.21354e-08
1.71374e-08 1.24441e-08 3.83808e-08
1.49569e-08 1.85082e-08 -3.58543e-08
8.6434e-06 4.34855e-06 1.32322e-06
2.63219e-05 2.09362e-05 -1.70295e-05
-4.70889e-09 2.03122e-07 2.53975e-07
-1.07939e-07 1.6455e-07 1.98418e-07
8.47102e-07 1.66015e-06 -2.83924e-07
7.59547e-07 1.94906e-06 -2.4261e-07
0.00019903 1.8038e-05 4.87726e-05
0.000180028 2.11447e-05 5.87802e-05
2.43676e-05 1.8713e-05 -1.53473e-05
8.52593e-06 6.40633e-06 3.15897e-06
-8.53853e-07 7.09588e-07 -1.75941e-07
-8.78369e-07 5.73464e-07 -1.59401e-07
5.52585e-06 4.31254e-06 1.76102e-06
2.74364e-05 2.0499e-05 1.95593e-05
2.46597e-05 1.61504e-05 1.49764e-05
1.06723e-09 -5.75722e-09 2.02679e-08
-2.13291e-08 1.59561e-08 -1.43681e-08
-1.33258e-07 6.11429e-08 5.70399e-08
2.34893e-05 1.61082e-05 1.36233e-05
-2.03548e-07 6.03696e-08 -5.06081e-08
-1.59788e-07 7.56198e-08 2.24807e-08
-4.61296e-07 2.81253e-07 -2.05244e-07
-2.85085e-07 1.59057e-07 -1.22096e-07
-1.9919e-07 7.62903e-08 -1.06187e-08
9.07907e-07 5.47754e-06 -2.46246e-07
9.23847e-09 5.31308e-09 -6.09791e-09
9.59844e-09 7.05818e-09 -1.05532e-08
-1.48461e-08 3.36683e-08 -2.96242e-09
6.61516e-09 2.38627e-08 1.62275e-08
-5.25091e-09 1.3615e-08 9.02336e-09
-1.49268e-08 2.75572e-08 1.06228e-08
-1.83977e-08 2.3957e-08 5.73044e-09
-3.27063e-08 5.7437e-08 -5.99837e-09
4.56108e-08 3.44478e-09 -5.11908e-08
2.82515e-07 3.30929e-07 4.27322e-08
2.86277e-07 1.60006e-07 -1.11938e-07
2.08073e-07 1.97299e-07 2.01251e-08
-2.33953e-08 9.87562e-08 -1.42665e-08
9.74698e-07 4.93947e-07 -3.14718e-08
-3.69324e-06 3.50199e-06 2.23275e-06
-2.4567e-06 3.5902e-06 2.21349e-06
-1.07575e-06 7.95229e-08 3.51394e-07
-9.21214e-07 -4.57505e-08 5.8045e-07
1.57229e-06 7.80062e-07 -7.60372e-08
1.43112e-06 2.61565e-07 4.95793e-07
-1.41897e-08 8.91946e-09 5.26154e-08
-5.38292e-07 -2.31137e-08 -5.0967e-07
-9.49817e-07 6.96978e-08 -4.64275e-07
-4.4933e-09 4.04295e-10 2.99691e-09
-1.04092e-08 6.21634e-09 1.19211e-08
-1.07028e-08 -8.94568e-10 -3.5474e-09
1.80519e-07 5.26603e-07 1.34043e-07
1.33971e-07 5.12943e-07 1.10332e-07
-2.74644e-08 2.21487e-08 2.0106e-08
3.52205e-07 2.47916e-07 -2.75514e-07
-6.75626e-08 2.45357e-07 1.12843e-07
-1.56077e-06 2.12983e-06 3.50661e-07
-1.48487e-06 2.04438e-06 2.86208e-07
-1.53267e-07 2.22783e-07 1.12383e-07
-1.10937e-07 1.09947e-06 -7.2108e-08
-5.02996e-08 1.15501e-06 -1.06012e-07
3.17036e-07 6.05511e-07 -4.35561e-08
-2.64251e-08 2.68006e-08 3.2363e-08
1.59275e-06 2.84505e-06 -1.04365e-06
1.8861e-06 1.93637e-06 -4.00178e-07
-2.21073e-07 2.14615e-06 -1.03726e-06
-3.20564e-08 3.67705e-09 -1.17558e-08
3.95101e-05 2.89719e-05 4.09842e-05
3.0056e-05 2.79831e-05 3.69709e-05
6.67047e-09 -9.16724e-11 -1.43034e-08
1.59588e-09 7.84805e-08 3.35804e-08
4.51241e-05 2.74841e-05 -3.48494e-05
1.3573e-08 1.33407e-07 6.35641e-08
2.3394e-08 2.75858e-08 5.47929e-08
3.93547e-08 2.35236e-08 5.49577e-08
3.65659e-07 3.86789e-07 -3.29624e-07
2.53246e-08 2.3843e-08 4.30587e-08
2.62764e-06 6.65673e-06 -1.27734e-06
3.94661e-06 3.43267e-06 -3.3729e-07
1.20949e-08 6.62194e-08 8.51166e-08
-1.33852e-08 7.43349e-08 1.99619e-08
-2.38416e-08 1.29486e-08 2.69269e-08
-1.22923e-08 3.5279e-10 7.35414e-09
7.50645e-06 1.60593e-06 -5.52902e-07
9.5547e-06 2.38725e-06 -3.82489e-06
-2.42122e-06 1.90992e-06 1.30427e-07
-1.61756e-07 3.92034e-07 4.79552e-08
2.61555e-06 1.03125e-06 -2.37362e-07
-5.58444e-08 7.61117e-08 6.77256e-09
-2.28923e-08 8.88759e-08 -5.28888e-09
-1.83337e-06 1.26486e-07 6.73968e-07
-2.13496e-06 5.84223e-07 -6.29869e-07
-9.93981e-07 2.44355e-07 -8.54988e-08
-1.17005e-06 1.45129e-07 -3.85598e-07
-7.57874e-08 1.01472e-07 -6.50717e-08
-4.32187e-07 3.81203e-07 6.98133e-09
5.09491e-07 1.68349e-07 -2.71704e-07
5.08391e-07 1.8762e-07 -2.18848e-07
-4.53631e-07 3.94625e-07 1.29715e-08
6.55913e-07 4.96719e-06 7.7312e-08
1.81571e-06 4.1728e-06 2.71747e-08
1.21051e-06 3.55595e-06 1.75064e-07
1.2968e-08 1.54001e-08 5.47321e-08
8.15662e-06 1.75101e-06 3.7459e-07
9.14102e-06 1.96635e-06 -1.42444e-06
-1.50548e-06 6.31717e-06 -1.0989e-06
1.24302e-08 -2.05808e-09 1.47318e-08
1.98461e-06 4.06453e-06 7.17337e-08
3.04033e-06 9.44323e-06 5.17076e-06
5.01619e-06 6.00317e-06 2.5816e-06
1.04815e-05 9.17526e-06 4.31905e-06
9.98819e-08 4.08323e-07 6.64915e-08
6.29886e-08 5.37833e-07 4.65327e-08
-2.82699e-07 1.44851e-06 1.64053e-07
-4.21212e-08 7.84221e-07 9.12152e-08
6.96249e-07 3.03077e-07 1.55894e-07
3.35469e-07 5.29513e-07 1.00763e-07
1.96578e-06 6.63745e-07 -3.25442e-08
2.69363e-06 1.15071e-06 4.6018e-07
-3.47143e-08 7.06992e-10 2.6348e-08
-2.95515e-08 -2.55153e-09 1.30327e-08
7.50632e-08 1.95705e-08 -8.34878e-08
5.88372e-08 9.15182e-09 -5.07793e-08
-2.12662e-08 6.80096e-08 1.02269e-07
1.33674e-08 5.58439e-08 1.0912e-07
-1.59283e-08 5.76229e-08 9.56154e-08
2.67714e-07 1.0185e-07 2.05519e-07
4.05427e-07 2.50057e-07 -7.43677e-08
5.78442e-07 2.72843e-07 1.43741e-07
2.33851e-08 7.73438e-08 -8.39972e-08
1.26946e-08 7.88477e-08 -8.02346e-08
-5.20563e-08 5.90074e-07 -3.40008e-07
2.49423e-08 3.3892e-07 -2.00045e-07
-2.85901e-07 2.98713e-06 -5.46467e-07
-8.99811e-07 2.09532e-06 -3.86594e-07
-1.51614e-08 6.51332e-08 -5.74839e-08
2.09389e-07 -1.19727e-08 -3.94026e-08
-1.92769e-08 5.1032e-09 1.1212e-08
1.33596e-08 3.43993e-08 -5.27735e-08
-1.63964e-06 3.80131e-06 -1.65077e-07
-8.12679e-08 3.67789e-07 -2.73095e-07
-1.43784e-07 3.17784e-07 -2.24009e-07
2.17119e-05 3.3743e-05 3.30132e-05
1.72683e-06 9.04309e-07 1.35127e-06
9.4194e-05 8.37433e-06 4.35862e-06
0.000107046 8.95069e-06 -1.01407e-05
8.35311e-05 9.24497e-06 -2.10694e-05
0.000102077 8.8198e-06 -5.84408e-06
1.86704e-06 8.78021e-07 1.36292e-06
2.09108e-05 2.67727e-05 2.53215e-05
2.02642e-05 2.64749e-05 2.29659e-05
4.62396e-08 3.02195e-08 -8.34064e-08
-2.56051e-08 5.90818e-09 -3.06242e-08
-1.31803e-08 4.87645e-09 -5.28073e-08
5.1962e-08 1.91793e-08 -6.92569e-08
2.32674e-08 9.12869e-09 -3.42425e-08
1.41795e-07 2.51862e-07 9.01933e-08
1.01501e-07 3.78934e-07 2.30488e-07
-6.43459e-07 8.96865e-08 2.25477e-07
-2.33989e-05 9.59577e-06 -9.29704e-06
-2.36658e-05 1.06315e-05 -1.12853e-05
-8.90896e-07 7.65044e-07 -2.12547e-07
2.17317e-07 2.07697e-07 -1.68951e-07
3.55225e-07 3.90674e-07 1.05478e-07
1.90325e-07 5.32261e-07 -2.81061e-07
1.78854e-07 2.19959e-07 -1.47417e-07
1.20737e-07 4.47961e-09 7.20816e-08
9.87941e-08 5.28655e-08 1.27101e-07
6.15863e-08 3.16145e-08 8.15333e-08
1.21594e-06 1.62799e-06 -1.11948e-07
1.34327e-06 1.84357e-06 -1.14536e-07
-5.14642e-05 1.99092e-05 -2.93771e-05
-9.81979e-08 2.11401e-07 5.03457e-09
3.15405e-08 5.74192e-09 1.99553e-08
-2.90188e-08 6.5058e-08 1.1769e-07
6.45052e-07 1.97234e-06 -2.09644e-07
6.67359e-07 1.35321e-06 -1.69003e-07
-5.5765e-08 9.52552e-08 -1.5813e-09
1.21021e-07 1.91809e-07 3.48253e-09
-1.1055e-07 1.68403e-07 -1.21022e-08
-1.77163e-05 1.76521e-06 1.42376e-07
3.86648e-09 1.08328e-07 -5.20737e-08
-2.54738e-09 9.21956e-08 -4.55497e-08
-9.19118e-06 -4.07667e-08 -1.60035e-06
8.03952e-07 7.59616e-07 -2.75562e-07
-1.42056e-05 3.85167e-06 3.62343e-06
-1.15008e-08 1.04752e-07 5.13926e-10
1.72094e-06 6.26642e-07 1.55891e-07
1.89163e-06 5.01551e-07 4.85236e-07
2.62474e-09 6.91606e-08 -3.69487e-08
-1.00447e-08 8.08803e-08 2.32272e-08
1.1526e-07 2.08307e-07 -1.26978e-07
1.81004e-08 -1.03507e-08 -1.86299e-08
1.78616e-08 7.98472e-10 -3.79815e-08
4.48665e-07 4.76578e-07 -1.34128e-07
5.62652e-07 3.99997e-07 6.53985e-08
2.78453e-06 2.23878e-06 9.10244e-07
3.41404e-05 3.11883e-05 3.99145e-05
2.62497e-05 3.09512e-05 3.69522e-05
1.66068e-08 8.05038e-10 3.64765e-10
-1.475e-08 3.46034e-10 -1.7085e-08
2.4615e-05 2.92185e-05 3.27083e-05
3.59392e-07 9.7995e-08 1.53672e-07
1.78441e-07 1.46198e-07 1.05113e-08
-2.28326e-08 5.6698e-08 -2.78415e-09
-9.89153e-08 1.85967e-07 1.67155e-07
-9.06328e-08 2.03981e-07 1.67719e-07
-5.43983e-07 3.33571e-06 2.77203e-07
-9.12136e-08 3.96869e-08 3.67056e-08
-2.70075e-08 1.19545e-07 9.30527e-08
-5.33827e-05 3.57246e-05 -5.70718e-05
-3.98353e-05 3.06428e-05 -4.50785e-05
-6.94972e-07 3.34512e-06 2.90886e-07
1.04854e-06 1.22654e-06 -2.50976e-07
-2.57112e-07 2.81792e-06 3.70174e-07
-2.75181e-09 -3.11215e-09 -2.49362e-08
1.70349e-07 7.41643e-07 -2.24747e-07
2.53654e-06 3.67765e-05 -3.57008e-05
3.16561e-07 4.35041e-07 -5.71028e-08
9.45495e-07 6.45091e-07 6.68649e-07
6.13814e-08 1.075e-07 -5.5101e-08
-3.36328e-08 4.82665e-08 2.9249e-08
8.71338e-09 2.2361e-09 -4.22335e-09
-3.92046e-09 3.30333e-09 -2.09417e-08
-1.60726e-05 2.10993e-05 -2.0715e-05
-3.1109e-08 6.3782e-08 9.79276e-08
1.33867e-06 5.01074e-07 -1.93426e-07
-5.21438e-09 -2.58175e-09 1.70654e-09
6.40982e-08 1.28993e-07 1.402e-07
2.1042e-08 1.18484e-09 2.19506e-08
1.63661e-05 2.55865e-05 -1.85712e-05
2.66674e-07 8.61052e-08 -1.04401e-07
1.38763e-05 2.64785e-05 -2.1663e-05
0.000396061 7.93399e-06 -8.18435e-05
0.000381678 1.17967e-05 -8.23503e-05
1.38769e-08 9.7722e-08 9.27114e-08
0.000115649 6.25729e-05 -0.000169098
1.15577e-08 1.10228e-07 8.89691e-08
-5.24711e-08 6.71788e-08 1.23441e-08
-6.0878e-08 4.8963e-08 -6.09011e-09
4.10594e-08 1.52088e-07 1.27386e-07
1.08284e-06 1.1158e-06 -3.54928e-07
1.43105e-08 1.02811e-09 -1.04965e-08
3.47832e-07 2.75163e-07 -1.00208e-07
3.348e-05 3.68295e-05 -3.98483e-05
3.5087e-07 1.92795e-07 7.24994e-08
3.54358e-07 1.54249e-07 1.36851e-07
3.63046e-07 1.84662e-07 1.15486e-07
3.24721e-05 3.32725e-05 4.71437e-05
-8.92765e-08 4.78757e-08 -1.81188e-08
-7.83087e-08 4.11242e-08 -4.60046e-08
-1.64095e-07 1.01193e-07 -1.18043e-08
-2.92493e-07 2.50767e-07 -6.77513e-08
3.75206e-05 3.80111e-05 5.26389e-05
7.58011e-06 3.11485e-06 -6.07264e-07
2.36418e-06 5.08451e-06 -2.62677e-06
2.47163e-06 4.66311e-06 -2.2355e-06
0.000254924 1.15164e-05 -3.80687e-05
0.000240624 1.29307e-05 -3.78815e-05