# vtk DataFile Version 2.0
S, Created by Mohamad Ibrahim Cheikh
ASCII
DATASET UNSTRUCTURED_GRID
POINTS 10490 double
-223.577 20.3389 -34.7913
-223.73 23.2849 -32.7649
-130.491 -29.31 69.2833
-194.384 -37.8827 -41.0227
-207.473 29.5068 40.0418
-235.878 27.3976 13.4742
-191.275 -39.7119 -41.082
14.4104 -3.13859 87.7993
-191.072 39.2202 -41.6658
-193.412 36.9309 -42.4287
-251.147 3.21226 -3.38075
-251.007 5.46234 -0.714885
-204.327 29.2986 -42.1212
18.6096 -1.52506 87.7455
-201.229 30.3634 -43.1793
-151.335 68.7389 -14.6631
-148.545 69.9488 -12.2337
241.381 21.7605 -11.7087
240.378 24.3446 -8.78229
39.6266 72.9063 -47.2908
43.4604 72.1997 -47.9579
45.4358 -3.20533 -86.4927
49.2961 -1.51522 -86.2797
-145.563 -45.495 -55.4985
-142.058 -46.9196 -55.4241
-191.797 -27.3647 49.9142
-189.472 -30.0429 49.4592
-64.3396 -67.8362 51.3366
-66.4805 -66.0163 53.3361
-121.229 -41.6799 -64.8653
-205.493 44.6064 24.1737
-208.434 41.8705 25.9215
-64.876 -22.597 81.9639
-61.2417 -23.9328 81.927
44.3179 4.17845 86.5221
-201.398 -44.9175 27.5767
-52.4052 82.5746 -24.2734
-49.2902 82.2318 -26.1626
-109.541 -78.4117 -11.2485
-105.515 -79.2425 -10.0783
-195.498 42.6391 35.3085
-200.947 -43.0031 30.8389
-54.4282 -15.331 84.5356
3.5205 8.26812 87.6021
226.254 36.0725 -13.2453
223.494 37.2789 -15.4582
-146.998 22.4209 -67.7922
-143.836 23.6811 -68.1928
-167.021 -43.0237 -49.7758
-163.503 -43.4785 -50.8001
-215.266 -7.15842 -44.9374
-215.167 -3.16257 -45.4519
-105.636 -17.6214 77.8929
-104.099 -21.1578 77.2633
-247.96 -12.5229 7.72452
-247.222 -12.2245 10.5722
-226.224 -18.8464 33.5136
-129.025 -40.8338 -63.5488
238.447 4.07557 -27.6835
236.191 2.11805 -30.1593
30.6853 -3.73669 -87.2626
26.713 -2.00427 -87.4792
-224.961 -22.54 32.2503
-47.6606 -75.8719 41.3443
-235.553 -26.7706 15.3058
-110.251 51.1955 -60.2898
-237.919 -25.2891 13.1989
-16.8413 -1.47489 -87.7901
-20.0199 -4.01638 -87.6288
25.3059 7.52258 -87.2296
27.3705 3.70591 -87.3988
25.4536 1.7115 -87.5314
45.9727 -6.32575 -86.2857
-242.159 -16.9749 16.6259
249.587 -5.36899 -9.40943
249.11 -2.30251 -11.8808
-169.141 48.1665 43.8338
30.4567 -13.4827 -86.3056
-165.515 47.9372 45.7384
-244.371 -14.4431 14.9729
243.986 6.92799 20.1943
244.544 3.5644 20.2422
-218.53 -34.2527 26.9081
-142.146 -69.4109 21.2692
-139.63 -70.7398 18.7863
-221.096 -32.0563 27.048
-157.971 -59.7999 33.358
-205.038 32.4627 39.2827
-154.319 -61.3637 32.6021
21.326 7.36978 87.3728
-119.07 18.5169 75.2686
-116.4 20.6023 75.2378
25.578 -59.0324 64.6458
29.1127 -57.6613 65.6918
-134.544 55.0503 -49.9723
-136.832 52.5605 -51.8568
-177.092 57.9185 23.4484
-176.695 59.3922 19.8534
-69.8879 65.2929 -53.6922
-62.7524 16.9331 -83.5174
-66.3686 16.9205 -83.177
-66.3543 66.8387 -52.3215
124.461 57.7465 50.1281
121.028 58.3528 50.4542
-132.441 -69.8471 26.7935
-132.815 -68.001 30.9873
-188.864 35.12 46.2984
-185.117 37.2906 46.4535
-232.726 13.1741 -30.6501
-59.7675 75.2542 40.5397
-61.0839 76.7671 37.3362
-231.927 16.7983 -29.6017
-175.271 -46.9572 -42.1659
-178.789 -11.23 60.8632
-181.798 -8.3756 60.2283
-195.82 53.7533 12.6463
-198.374 52.0665 14.6693
-195.137 -6.40386 -55.1457
-196.11 -2.36412 -55.0439
-155.756 25.0525 64.3912
-159.462 22.4859 64.2277
-196.21 -54.5515 -7.39863
-193.182 -56.048 -5.79655
-91.1156 75.2382 -32.6617
-87.131 75.6231 -33.1011
-39.2314 -78.9675 -36.3278
-42.7325 -77.6545 -38.6033
-35.7063 20.5709 -84.6448
-119.25 -59.0776 -50.128
-116.055 -58.39 -51.8231
-103.565 -58.9115 54.4084
-107.46 -57.2202 55.2817
-176.076 46.9078 -41.8087
26.904 14.0036 -86.3671
23.7881 15.7865 -86.1714
-175.603 44.5877 -44.5041
-89.4449 -39.5909 72.0907
-93.3144 -38.4532 72.106
-1.70717 -75.0125 -46.0083
2.63186 -75.2488 -45.6155
-158.022 -33.1966 -59.8731
-154.736 -36.6322 -58.9126
25.6734 72.9091 48.4517
28.1572 70.903 51.183
-166.58 38.8123 53.2943
-168.991 36.4386 54.0357
126.644 60.2639 46.3533
124.997 62.2379 44.2441
55.9197 20.2575 83.3714
-158.15 12.646 67.2452
-155.545 9.85688 68.445
-43.9302 73.5346 -45.83
70.9405 53.0797 -65.6537
-41.2505 75.208 -43.3523
222.064 -27.8283 -30.5325
225.276 -26.0124 -29.2252
-17.3211 79.663 -36.8926
-20.076 78.4003 -39.3452
247.477 -7.06407 13.9944
245.671 -9.07239 16.5073
-182.892 19.8551 57.0485
-181.351 22.6981 56.5887
-55.5292 68.6763 51.4786
-53.2748 70.5462 49.1909
-221.673 26.3871 -32.119
245.289 -12.7014 14.7129
-123.336 -44.6599 -62.3466
-128.466 -46.9004 -59.3617
-126.783 -44.2468 -61.7923
-219.064 -11.0533 41.7915
-206.369 49.8791 -6.4812
-208.053 48.5167 -9.51765
-173.562 -35.1391 53.1146
-196.133 -34.8661 -42.6458
-56.8373 10.6404 85.0604
-99.4587 80.6808 4.85029
-149.825 -21.468 67.3415
-153.215 -21.7137 66.3209
-105.597 79.8338 2.32191
-103.244 80.0599 5.42036
-208.26 -1.82534 -49.3012
-211.702 -0.426345 -47.5055
6.90361 76.5904 -43.2674
8.57577 74.8544 -46.1715
-16.9383 86.0546 -17.4207
-20.5901 85.3406 -20.2254
12.342 74.3367 -46.8978
-209.318 34.9078 -34.0774
-209.428 37.4822 -31.1333
-243.669 12.2905 -17.991
-205.995 40.0916 -30.6831
-237.952 16.7296 23.0649
-240.124 13.5356 22.3944
-198.67 34.6947 41.3275
-44.0908 -51.86 -69.4013
-47.936 -52.1783 -68.8484
-64.5655 78.4384 -32.8791
-61.4472 79.4256 -31.1977
-198.904 37.6909 38.4668
-195.379 39.9847 38.3623
193.193 51.8478 -22.051
191.208 51.6124 -24.5776
-17.427 72.6828 -49.2344
-16.0857 70.9543 -51.7476
-160.714 -8.67723 67.13
-158.26 -5.14413 68.1991
-159.179 -12.1848 67.0327
-155.587 -13.9494 67.7179
-181.217 -39.3682 -46.6216
-187.068 -34.8942 -47.3498
234.201 -8.19814 31.0077
231.367 -8.83962 33.3482
-185.724 -37.8054 -45.7353
-220.423 -36.3319 -21.8074
-223.2 -33.1948 -23.2994
-74.2364 69.6221 47.1386
-199.25 43.3704 -31.6616
-202.414 40.5158 -32.9594
-78.9814 71.9669 42.4386
-75.1392 71.7936 43.5711
-199.863 -47.1005 -25.2003
-196.405 -49.1627 -24.582
-156.238 -38.5636 57.169
-155.215 -34.605 59.9743
-162.911 56.2587 -36.4646
-159.763 58.0874 -35.2833
245.94 -16.0778 8.95233
246.756 -13.0534 10.9095
-202.191 25.1236 -45.9096
246.469 -16.6405 5.45934
-222.675 -40.7295 -3.81024
-219.563 -42.6765 -4.53619
-225.912 36.4539 -12.9115
-224.087 36.2129 -16.8756
-228.9 -34.8682 10.6499
-231.376 -33.5773 7.89139
-225.472 -37.7616 9.69469
119.575 74.8257 19.8644
-172.164 -51.1022 -38.7774
115.38 75.6407 19.8148
47.913 12.1649 -85.5275
51.5004 10.7694 -85.4593
-180.221 -22.1757 57.2341
-179.947 52.3214 -32.2808
-165.452 0.847432 66.2708
-168.576 2.82479 65.2444
-181.02 -17.4178 58.5558
36.4523 -59.7548 63.3299
37.7865 -57.208 65.5472
-159.985 -59.9394 -31.9007
-182.767 -21.7981 -56.3844
-184.312 -18.0306 -57.0947
-11.9387 15.0574 -86.6015
-188.59 -54.9978 19.1015
-192.466 -53.1211 19.6701
-145.939 9.33513 -71.0585
-143.738 12.138 -71.1841
-174.369 52.4201 35.6888
-173.431 50.7176 38.5905
-187.18 39.7166 -43.3255
-231.498 33.496 -7.79796
-229.092 35.9702 -4.9595
-234.904 30.8712 -5.9409
241.404 7.7209 23.4445
239.892 10.8368 24.102
240.609 13.4019 21.8298
-138.879 -61.8301 -39.4928
-138.123 -60.1627 -42.2934
-141.495 -58.2504 -43.5857
-200.351 -41.1645 -33.6909
-218.716 20.1155 -38.5059
-52.6836 9.04028 85.5714
-56.6797 -81.183 27.5681
-60.1941 -81.4608 25.7787
-152.607 56.1701 41.685
-153.385 58.055 38.6421
-189.413 -9.89809 -57.0399
-186.066 -8.87973 -58.5368
64.9121 -8.70915 84.5712
67.8937 -7.07496 84.4369
-196.835 -37.2195 40.1903
-200.415 -34.6099 40.356
-180.668 -48.2456 -37.6845
-174.532 -52.0916 -36.0703
-215.618 -38.5089 23.856
-218.655 -36.4149 23.7604
-178.254 -50.9818 -35.4216
-121.568 47.9398 -60.3027
-71.2905 59.6053 59.7409
26.8711 -68.3007 54.6865
24.8084 -66.5878 56.8746
-87.1946 -8.59102 -82.0937
-84.0145 -6.2844 -82.7063
-31.9307 85.873 -15.6525
-35.6034 85.3919 -17.2347
-75.0971 60.1111 58.6532
-117.632 48.9732 -60.4277
67.0917 -10.9673 -84.0989
63.3424 -11.5735 -84.3732
-122.328 44.7333 -62.5369
-76.1457 64.1129 -54.0709
-79.6661 64.2905 -53.2326
-210.937 -46.4386 -11.832
-207.911 -47.2774 -14.7161
-70.3837 -66.9054 51.5864
-82.42 61.791 -55.6254
181.004 57.5728 -20.4507
187.793 54.7427 -20.7268
-57.9869 -57.7687 -63.2069
-60.2486 -59.9493 -60.8743
185.03 56.506 -18.9617
-52.2162 4.9286 85.9413
170.803 -60.94 -21.4145
166.657 -61.8363 -22.7991
-242.161 -11.2307 20.9366
-241.443 -7.71442 23.3971
231.623 25.861 -22.5153
229.371 25.1803 -25.8603
225.985 27.6876 -26.9258
-235.384 -18.9695 -24.5116
-234.85 -16.6287 -26.7379
-226.067 27.1632 -27.3716
-222.951 28.4617 -29.1254
-220.768 31.3764 -28.1507
-250.634 -7.29487 -0.178469
-176.047 45.307 43.5526
58.6672 51.2644 -68.517
59.749 48.4357 -70.4338
128.107 68.3807 32.5396
131.6 68.3047 30.9542
-176.934 47.6156 40.5463
-181.036 46.7545 39.3127
18.7049 -86.4179 15.2677
142.034 69.3643 -21.5113
141.095 68.3963 -25.0721
23.2385 -86.1703 15.8921
181.098 -44.0245 42.315
25.6368 -86.6619 12.3796
-189.026 21.6439 -53.861
-189.446 17.8978 -55.0423
-212.326 -45.0145 14.0794
-120.849 -47.0035 -61.2099
-24.3206 -37.2732 79.2609
52.317 18.5352 -84.0556
55.8309 16.7482 -84.1539
-25.2907 -41.1223 77.2959
-119.137 -6.53529 -77.224
-115.757 -7.75121 -77.7392
-200.049 16.4731 50.7248
-215.148 -43.2643 14.3201
-153.429 33.0432 61.401
-156.854 31.3601 61.224
-157.696 28.2104 62.4785
-79.9676 -83.4309 0.602953
-63.1672 72.9193 -44.0258
-62.466 70.8721 -47.3648
-79.8045 -83.3553 -4.02106
-209.642 -18.6816 44.88
-59.9144 71.4975 46.8253
-205.671 -19.6743 46.6695
-191.283 -46.3885 33.3536
-190.154 -45.0077 35.9362
-195.132 47.3245 29.029
-192.216 -42.6381 37.4504
-97.6854 19.8163 78.6322
-94.0937 20.9975 78.8616
-195.846 -41.8724 35.9834
-247.68 -8.81206 12.4833
188.065 -42.0218 40.5956
184.93 -44.2656 39.9694
-127.175 75.5072 7.90759
-123.543 76.0389 9.66614
48.8669 1.6928 86.3063
130.446 15.5933 -73.604
-179.707 46.5242 -40.3197
198.595 13.1804 52.3604
200.49 9.4338 52.2853
113.349 74.8977 23.693
109.607 75.3499 24.404
149.56 63.7434 -30.6955
145.731 65.3546 -29.5409
-166.875 -45.6699 -47.4227
129.843 19.3571 -72.8369
-209.803 43.7075 -21.0854
-206.943 46.1307 -19.309
126.468 20.2094 -73.3308
-61.8908 -0.322042 85.2932
-59.1802 2.60018 85.4895
-53.8452 -1.98307 85.9366
[...]
POINT_DATA 10490
VECTORS F double
1.28623e-08 3.05582e-08 7.7427e-09
1.30788e-07 9.16129e-08 -4.42331e-08
1.34313e-07 6.99482e-07 3.26883e-07
5.85295e-08 -7.24296e-09 -2.72653e-08
2.88996e-07 2.64092e-07 -1.12809e-08
1.85138e-07 1.98918e-07 -7.669e-09
8.55848e-08 2.693e-08 -7.48171e-08
-1.85497e-06 2.17349e-06 1.14968e-07
9.84189e-07 7.53026e-07 1.56257e-07
1.08229e-06 6.47423e-07 -4.04991e-08
1.25894e-08 7.54254e-08 -4.28527e-08
1.10632e-08 5.94471e-08 -2.14091e-08
9.86194e-08 3.67087e-07 1.96766e-07
-2.29936e-06 3.74647e-06 1.24818e-07
1.41786e-07 1.15061e-07 1.1404e-11
3.37214e-06 6.22043e-07 -1.34494e-06
4.3756e-06 7.47891e-07 -2.22852e-06
-1.1346e-08 2.1382e-08 1.11027e-08
-1.33071e-08 2.0762e-08 1.29614e-08
-2.84803e-05 6.30735e-06 6.80203e-06
-2.76045e-05 5.35233e-06 4.99512e-06
-3.2541e-06 1.86395e-06 -2.78362e-07
-2.96023e-06 1.35705e-06 -2.30903e-07
3.1109e-08 2.23855e-07 -1.93495e-07
5.77884e-08 2.5071e-07 -2.30374e-07
1.38601e-08 1.66762e-07 9.79452e-08
-1.4345e-09 1.42357e-07 8.57982e-08
-4.41487e-08 1.83647e-07 2.35897e-07
-1.84478e-07 1.41439e-07 1.46912e-07
2.54207e-07 2.15049e-07 -1.96349e-07
5.80654e-07 2.65179e-07 1.1499e-07
3.82042e-07 2.91681e-07 -9.50422e-08
1.09904e-07 2.94564e-06 8.22747e-07
-3.25393e-07 1.51778e-06 4.13597e-07
-1.96532e-06 2.97276e-06 -2.03201e-08
1.35937e-08 2.86701e-08 5.88536e-08
0.000101675 2.06481e-05 4.33661e-05
0.000111573 2.44966e-05 5.12594e-05
3.94273e-08 6.94209e-10 -5.18472e-08
3.37927e-08 -2.53314e-09 -2.33928e-08
6.51349e-07 3.59834e-07 6.99456e-09
2.59959e-08 2.92752e-08 6.15611e-08
3.28604e-07 2.75028e-06 5.24678e-07
-1.45941e-06 3.50343e-06 -3.23484e-07
-2.27365e-08 1.36188e-08 -1.04586e-08
-3.84451e-08 3.46544e-08 1.55232e-08
1.31534e-06 8.94875e-07 -5.32302e-08
1.10675e-06 1.79915e-06 3.3898e-07
-5.36548e-08 1.05894e-07 -6.94879e-08
-4.68677e-08 1.19215e-07 -8.35655e-08
5.45315e-08 1.50852e-07 -5.60132e-08
7.19781e-08 1.59987e-07 -5.28491e-08
9.64035e-07 2.37518e-06 6.97393e-07
1.0153e-06 2.29203e-06 7.95128e-07
-4.11646e-08 1.00033e-07 3.99776e-10
-2.89705e-08 7.53155e-08 4.14863e-09
5.83228e-08 9.81076e-08 1.03371e-07
1.79328e-07 3.47509e-08 -6.69056e-08
-1.85267e-08 1.2312e-08 -1.77237e-08
-1.75689e-08 7.56452e-09 -1.63141e-08
-2.54892e-06 3.02896e-06 -2.3944e-07
-2.31956e-06 3.95709e-06 -1.77381e-07
1.2038e-08 8.78616e-08 7.16869e-08
-3.80414e-08 5.31121e-08 9.20981e-08
-1.16439e-08 1.26489e-08 1.84144e-10
1.40908e-05 6.42061e-06 2.29734e-06
-2.15749e-08 3.74163e-08 2.40772e-08
-5.10294e-07 4.95338e-06 -7.1234e-08
1.53568e-07 3.81344e-06 -1.79082e-07
-6.21026e-07 7.13968e-06 5.93659e-07
-3.46897e-06 5.46962e-06 9.89196e-08
-2.26991e-06 4.1232e-06 -1.92555e-10
-1.23886e-06 2.15501e-06 -2.38799e-07
5.19407e-09 4.55989e-08 5.58173e-08
2.52242e-09 1.27289e-08 9.28787e-10
-3.40635e-09 4.51816e-09 -9.6209e-09
3.1144e-07 3.98356e-07 -2.90598e-07
9.88626e-07 1.57589e-06 -2.03473e-07
4.61664e-07 5.73547e-07 -3.96581e-07
6.78557e-10 2.94568e-08 2.97726e-08
-9.51738e-09 1.05281e-08 1.04675e-08
-2.74127e-09 1.08168e-08 2.14923e-09
1.9007e-08 1.59834e-08 3.92462e-08
2.55386e-08 5.857e-09 4.00099e-08
1.30186e-08 3.20678e-09 2.3925e-08
1.55424e-08 1.85344e-08 3.75198e-08
3.7402e-08 3.30764e-08 8.09809e-08
2.35382e-07 3.07361e-07 -1.03582e-07
3.87676e-08 2.81762e-08 7.54996e-08
-2.83916e-08 4.65433e-06 -3.9174e-07
2.20208e-06 2.84679e-06 -2.73852e-07
2.01617e-06 3.3364e-06 -5.31716e-07
-2.47322e-08 1.83029e-07 1.68333e-07
-6.50924e-08 2.69992e-07 2.40518e-07
5.20965e-06 3.34213e-06 1.96449e-06
6.68536e-06 2.68518e-06 5.61898e-07
4.19855e-07 3.48348e-07 -4.7221e-07
1.33949e-06 6.07047e-07 -3.5645e-07
3.01032e-05 2.13552e-05 2.11718e-05
2.30376e-06 1.43038e-06 7.80842e-08
2.05061e-06 1.29287e-07 -1.74025e-07
2.90183e-05 2.40163e-05 2.61742e-05
-1.02757e-06 3.74075e-07 -1.18573e-07
-1.09193e-06 4.05351e-07 -1.48131e-07
3.04887e-09 1.26313e-08 3.47751e-08
-1.15072e-09 1.76108e-08 3.80415e-08
1.03735e-06 5.57456e-07 9.52179e-08
1.01558e-06 7.06344e-07 -7.15324e-08
6.23692e-08 8.62477e-08 -2.09083e-08
4.8957e-05 2.56583e-05 -3.87928e-05
4.9492e-05 2.53873e-05 -4.22855e-05
3.56735e-08 8.89078e-08 1.62338e-08
4.49007e-08 -2.27683e-08 2.50572e-09
4.42286e-07 3.81176e-07 2.29398e-07
2.1916e-07 1.41783e-07 1.00708e-07
6.93688e-07 3.77883e-07 -2.91127e-07
8.35654e-07 3.98621e-07 -3.13079e-08
-7.09832e-09 1.20689e-07 -1.09406e-08
1.29572e-07 1.67381e-07 -6.37076e-08
3.75309e-07 2.50052e-06 -8.61723e-07
1.30303e-06 9.57037e-07 6.10216e-08
7.77192e-09 -1.7314e-09 -1.24705e-08
-1.61253e-09 -4.55822e-10 1.09839e-08
2.80993e-05 8.02124e-06 8.88017e-06
2.95265e-05 9.68611e-06 1.26133e-05
-4.43177e-08 5.04178e-08 -1.03735e-07
-3.05181e-08 6.49443e-08 -1.26506e-07
1.73642e-06 1.11032e-05 2.60867e-06
1.28028e-07 1.59439e-07 -2.25193e-07
1.24658e-07 1.85659e-07 -2.43363e-07
3.74512e-08 1.44053e-07 1.64703e-07
8.34091e-08 2.33105e-07 2.6113e-07
2.59681e-06 7.7964e-07 -4.64223e-07
-2.08301e-07 6.64698e-06 1.0698e-06
-2.29885e-06 3.50118e-06 5.63714e-07
7.00605e-07 5.32361e-08 -2.85118e-07
2.30246e-07 5.63112e-07 3.44225e-07
2.91536e-07 8.83893e-07 5.17559e-07
-6.30808e-08 8.19305e-08 -1.33294e-07
-6.19819e-08 5.90525e-08 -9.78532e-08
1.25741e-07 2.41971e-07 -1.74791e-07
2.6174e-08 1.53058e-07 -1.0359e-07
-4.8287e-05 1.90572e-05 -2.55443e-05
-4.21592e-05 2.10552e-05 -2.63279e-05
2.74591e-06 1.2325e-06 1.53215e-07
2.377e-06 1.42567e-06 -5.12628e-08
-5.42708e-07 1.69424e-07 -3.87384e-08
-1.44827e-06 3.32672e-08 4.54135e-07
-8.4441e-07 6.6356e-07 -9.18924e-08
9.48795e-07 1.05598e-06 7.4607e-08
2.25893e-07 2.74358e-07 2.33392e-08
4.49431e-05 4.16534e-05 6.15585e-05
-5.9192e-06 3.08559e-06 1.71159e-06
4.82196e-05 4.05811e-05 6.47829e-05
-2.39452e-09 7.80408e-09 -9.24472e-09
-1.56054e-09 6.12443e-09 -6.92374e-09
8.06687e-05 5.26846e-05 0.000109126
7.33688e-05 5.54133e-05 0.000105835
-6.40907e-10 -4.12095e-10 1.17717e-09
-1.15115e-09 7.32716e-10 2.50004e-09
3.75429e-07 5.58509e-07 -4.70268e-08
3.09861e-07 6.18727e-07 -1.266e-07
4.02099e-05 3.24662e-05 -3.8002e-05
3.97305e-05 3.294e-05 -4.19722e-05
2.05849e-07 7.90498e-08 -1.08994e-07
-3.85824e-09 -1.57061e-09 6.51706e-09
2.46117e-07 1.9616e-07 -2.00122e-07
8.52339e-09 1.31793e-07 -1.06385e-07
2.28598e-07 3.64697e-08 -8.35376e-08
-1.68114e-09 1.34929e-07 3.46081e-08
5.78071e-07 3.08156e-07 1.18048e-07
6.19046e-07 3.3378e-07 4.4702e-08
9.30312e-08 1.37585e-07 1.2824e-07
9.24857e-08 4.64091e-09 -5.58702e-08
1.8771e-06 3.86883e-06 -3.30403e-07
3.52697e-05 5.41058e-06 -1.45416e-06
-4.30909e-08 2.6987e-07 7.42951e-08
-7.61786e-08 3.71372e-07 1.00042e-07
3.08162e-05 5.20494e-06 -7.3757e-06
3.29311e-05 5.7121e-06 -7.57302e-06
4.88043e-08 9.52745e-08 -2.87674e-08
6.88255e-08 1.93167e-07 -3.9285e-08
-2.63326e-05 3.06695e-05 5.37757e-05
-3.72794e-05 2.80947e-05 4.47001e-05
0.000278339 1.75854e-05 5.37309e-05
0.000241339 2.34956e-05 6.90566e-05
-3.73008e-05 2.19335e-05 3.35645e-05
3.05778e-07 2.28996e-07 4.62311e-09
9.02987e-07 4.89845e-07 -1.53936e-07
1.08082e-07 1.8477e-07 -5.29961e-08
8.10561e-07 6.22556e-07 1.47207e-07
6.95635e-08 2.09026e-07 -6.37495e-08
8.26432e-08 1.75996e-07 2.11642e-09
4.21933e-07 -1.92683e-07 4.10088e-07
4.35584e-07 3.16883e-07 -2.70671e-07
4.00892e-07 4.03533e-07 -3.4e-07
6.47444e-05 2.29592e-05 3.92067e-05
6.90752e-05 2.17472e-05 3.87087e-05
7.07159e-07 -4.59983e-08 4.92748e-07
5.17068e-07 2.9925e-07 1.05063e-08
-7.88106e-08 3.75484e-08 3.7535e-09
-1.10022e-07 5.99161e-08 2.1031e-08
8.89985e-06 4.70608e-05 6.90883e-05
-5.79865e-06 4.32298e-05 5.94957e-05
7.3176e-07 4.22461e-07 2.69091e-07
8.97375e-07 3.51225e-07 2.81442e-07
1.84985e-07 1.57226e-07 8.23597e-08
3.01993e-07 3.72333e-07 1.61646e-07
1.03382e-07 1.01005e-07 -1.34489e-07
1.17494e-07 7.8808e-08 -1.14909e-07
1.52199e-09 9.90559e-09 1.21189e-09
1.12952e-09 9.71381e-09 1.61613e-09
8.92701e-08 6.48585e-08 -9.79951e-08
3.5456e-09 3.17982e-09 -9.6837e-09
-1.27755e-09 5.35755e-09 -6.135e-09
3.57248e-05 1.5351e-05 -1.57847e-05
8.10457e-07 6.54566e-07 2.72199e-07
8.47872e-07 6.1537e-07 1.18949e-07
3.0241e-05 1.057e-05 -1.10339e-05
3.41593e-05 1.51215e-05 -1.77039e-05
4.11689e-09 1.43796e-08 -3.08728e-08
2.54372e-10 7.8038e-09 -1.58562e-08
6.45851e-08 2.62317e-07 1.98557e-07
1.95956e-07 2.43655e-07 2.02677e-07
1.55834e-06 1.13058e-06 8.91907e-07
1.93969e-06 1.03102e-06 6.22075e-07
1.92842e-09 6.848e-09 5.8112e-09
6.75015e-10 7.32741e-09 6.89967e-09
3.3694e-07 2.3692e-07 -5.20254e-08
6.23853e-10 2.96272e-09 5.58527e-09
-2.86221e-08 2.01715e-08 -1.0833e-08
-2.17718e-08 1.0136e-08 3.36552e-08
3.19296e-07 2.43222e-07 2.71252e-09
4.14183e-07 3.21514e-07 1.65773e-08
1.21659e-08 -1.70282e-09 2.64411e-08
-2.59917e-09 1.17378e-08 4.06174e-08
1.62658e-09 -5.41682e-09 -1.64681e-08
-2.22176e-06 2.63444e-07 6.45019e-07
5.22462e-08 -1.99453e-08 -2.11492e-09
-2.29572e-06 3.36784e-07 3.50979e-07
6.89005e-07 1.4527e-06 2.5388e-07
6.04955e-07 9.59875e-07 1.65596e-07
1.08581e-07 3.17773e-07 1.64982e-07
1.63903e-06 5.3835e-07 -2.4604e-07
4.57297e-07 2.0619e-07 1.37141e-07
4.69142e-07 2.89223e-07 1.35881e-07
1.48865e-07 3.437e-07 1.58579e-07
-3.65297e-08 1.78301e-07 1.70809e-07
-1.68542e-08 1.88652e-07 1.6584e-07
4.23384e-08 1.19629e-08 -4.84732e-08
7.03679e-08 6.53851e-08 -5.3203e-08
2.29353e-07 1.25853e-07 -1.30391e-07
1.11945e-06 9.42154e-06 1.61922e-06
6.49074e-09 9.55999e-09 3.53721e-08
1.56747e-09 8.33574e-09 2.43914e-08
1.11963e-06 7.66638e-07 -1.80812e-07
7.89947e-07 1.14007e-06 -8.90494e-10
1.87498e-06 1.20905e-06 -6.54306e-07
1.31018e-06 9.37154e-07 -5.10766e-07
1.10815e-06 1.08183e-06 4.05575e-07
3.66942e-07 3.09028e-07 -6.26698e-09
3.38472e-07 2.74333e-07 7.54839e-08
2.89445e-07 2.2771e-07 -2.17912e-07
-1.12811e-08 1.90732e-08 7.93978e-09
-7.65668e-09 2.38672e-08 -1.40085e-09
-8.08172e-09 2.34359e-08 -3.4819e-09
7.37018e-08 2.95663e-08 -7.80201e-08
1.32573e-08 5.6475e-08 -8.56373e-08
7.46484e-08 1.14954e-07 -1.83301e-07
-1.15064e-08 6.73036e-08 -7.3857e-08
1.34497e-07 2.09447e-07 1.58837e-08
2.98081e-06 5.96219e-06 -4.05202e-07
2.36656e-08 1.84769e-08 6.03685e-08
1.71715e-08 1.79249e-08 6.15523e-08
9.31758e-07 1.47993e-07 2.18213e-07
3.61994e-06 1.20824e-06 -5.60338e-08
1.44495e-07 2.55909e-07 -1.03154e-07
1.94659e-07 1.49153e-07 -9.83799e-08
2.0528e-07 5.30054e-07 3.52934e-08
2.58705e-08 9.58941e-07 7.78009e-08
1.95179e-08 7.21036e-08 7.84767e-08
1.42496e-08 7.34074e-08 7.16196e-08
2.12523e-08 2.42405e-08 -4.35079e-08
1.86445e-08 4.58631e-09 -1.76687e-08
1.50301e-08 3.45928e-09 2.22153e-08
1.7216e-08 1.24285e-08 3.84436e-08
1.49626e-08 1.84175e-08 -3.57264e-08
8.50515e-06 4.30653e-06 1.32442e-06
2.62884e-05 2.0691e-05 -1.68033e-05
-4.6458e-09 2.05159e-07 2.56513e-07
-1.08825e-07 1.66243e-07 2.00446e-07
8.42908e-07 1.65403e-06 -2.82703e-07
7.53908e-07 1.94407e-06 -2.41481e-07
0.000194939 1.74252e-05 4.6909e-05
0.000176356 2.0394e-05 5.64398e-05
2.43251e-05 1.84314e-05 -1.50765e-05
8.40143e-06 6.28364e-06 3.0902e-06
-8.5458e-07 7.1172e-07 -1.76284e-07
-8.79379e-07 5.7708e-07 -1.59984e-07
5.45091e-06 4.27147e-06 1.74999e-06
2.70084e-05 2.00777e-05 1.91499e-05
2.42972e-05 1.58523e-05 1.46932e-05
1.08713e-09 -5.78916e-09 2.03501e-08
-2.12929e-08 1.59029e-08 -1.42579e-08
-1.3382e-07 6.16673e-08 5.76258e-08
2.30696e-05 1.58362e-05 1.34065e-05
-2.10031e-07 6.26776e-08 -5.11342e-08
-1.65e-07 7.81434e-08 2.33663e-08
-4.60488e-07 2.81047e-07 -2.05144e-07
-2.84536e-07 1.59023e-07 -1.22129e-07
-2.05411e-07 7.88647e-08 -1.03759e-08
9.28463e-07 5.46703e-06 -2.44464e-07
9.22533e-09 5.31806e-09 -6.12544e-09
9.58237e-09 7.06634e-09 -1.05908e-08
-1.47346e-08 3.35759e-08 -2.85289e-09
6.7153e-09 2.37786e-08 1.6326e-08
-5.42749e-09 1.38707e-08 9.09557e-09
-1.52158e-08 2.79369e-08 1.06791e-08
-1.87485e-08 2.4352e-08 5.77677e-09
-3.2621e-08 5.72545e-08 -5.95695e-09
4.54846e-08 3.40617e-09 -5.10298e-08
2.81548e-07 3.29829e-07 4.26227e-08
2.85308e-07 1.59616e-07 -1.11409e-07
2.0753e-07 1.96734e-07 2.00183e-08
-2.33385e-08 9.85172e-08 -1.41777e-08
9.74525e-07 4.90817e-07 -2.83092e-08
-3.68371e-06 3.50746e-06 2.23811e-06
-2.45547e-06 3.596e-06 2.21786e-06
-1.09165e-06 7.92744e-08 3.59584e-07
-9.36989e-07 -4.65857e-08 5.90499e-07
1.56771e-06 7.75066e-07 -7.26393e-08
1.42743e-06 2.6109e-07 4.94264e-07
-1.42327e-08 8.99762e-09 5.30607e-08
-5.49211e-07 -2.2732e-08 -5.17263e-07
-9.65811e-07 7.14855e-08 -4.70414e-07
-4.48706e-09 4.48327e-10 3.23127e-09
-1.05487e-08 6.30719e-09 1.20902e-08
-1.07082e-08 -8.64742e-10 -3.33828e-09
1.79488e-07 5.2432e-07 1.33575e-07
1.33808e-07 5.10707e-07 1.09679e-07
-2.74165e-08 2.21522e-08 2.02073e-08
3.51455e-07 2.47323e-07 -2.74874e-07
-6.63022e-08 2.47532e-07 1.13912e-07
-1.54587e-06 2.12704e-06 3.51238e-07
-1.47058e-06 2.04156e-06 2.86862e-07
-1.53146e-07 2.24956e-07 1.13543e-07
-1.09078e-07 1.09452e-06 -7.20243e-08
-4.84901e-08 1.15053e-06 -1.05878e-07
3.17403e-07 6.04457e-07 -4.30442e-08
-2.63796e-08 2.68034e-08 3.24553e-08
1.59449e-06 2.82541e-06 -1.0327e-06
1.88157e-06 1.93173e-06 -3.99291e-07
-2.12454e-07 2.14122e-06 -1.03246e-06
-3.21101e-08 3.6842e-09 -1.15225e-08
3.90324e-05 2.83762e-05 4.01425e-05
2.98122e-05 2.74217e-05 3.62174e-05
6.7539e-09 -1.12965e-10 -1.40754e-08
1.85515e-09 7.84823e-08 3.37299e-08
4.45848e-05 2.70748e-05 -3.4356e-05
1.3858e-08 1.3352e-07 6.37646e-08
2.35488e-08 2.76312e-08 5.49643e-08
3.95647e-08 2.35513e-08 5.51284e-08
3.65576e-07 3.85512e-07 -3.27621e-07
2.55005e-08 2.38725e-08 4.32028e-08
2.64857e-06 6.59496e-06 -1.25918e-06
3.92579e-06 3.49208e-06 -3.56324e-07
1.22486e-08 6.62954e-08 8.53076e-08
-1.33111e-08 7.41842e-08 2.00373e-08
-2.40309e-08 1.30618e-08 2.71503e-08
-1.24361e-08 3.96843e-10 7.48462e-09
7.44643e-06 1.59085e-06 -5.28265e-07
9.47532e-06 2.36499e-06 -3.77719e-06
-2.42699e-06 1.92596e-06 1.30462e-07
-1.63156e-07 3.99095e-07 4.91494e-08
2.59419e-06 1.02356e-06 -2.34525e-07
-5.70088e-08 7.74636e-08 6.97243e-09
-2.35928e-08 9.03305e-08 -5.22285e-09
-1.84435e-06 1.27939e-07 6.75815e-07
-2.1422e-06 5.85942e-07 -6.31215e-07
-1.01432e-06 2.49981e-07 -8.59441e-08
-1.19212e-06 1.49087e-07 -3.90165e-07
-7.55832e-08 1.01207e-07 -6.49048e-08
-4.3613e-07 3.8812e-07 7.96164e-09
5.07861e-07 1.67998e-07 -2.7044e-07
5.06802e-07 1.87189e-07 -2.17789e-07
-4.57734e-07 4.01759e-07 1.40737e-08
6.56725e-07 4.96352e-06 7.70818e-08
1.81082e-06 4.17363e-06 2.65289e-08
1.20901e-06 3.57099e-06 1.75147e-07
1.30154e-08 1.541e-08 5.48223e-08
8.06702e-06 1.73176e-06 3.66532e-07
9.03208e-06 1.94151e-06 -1.3832e-06
-1.50708e-06 6.32099e-06 -1.10006e-06
1.24757e-08 -2.06376e-09 1.47907e-08
1.98257e-06 4.07904e-06 7.10679e-08
3.09295e-06 9.26854e-06 5.05914e-06
4.97226e-06 5.98317e-06 2.57816e-06
1.02861e-05 9.0027e-06 4.23918e-06
1.00915e-07 4.09137e-07 6.69086e-08
6.43697e-08 5.38072e-07 4.69978e-08
-2.84775e-07 1.46338e-06 1.65621e-07
-4.20865e-08 7.93853e-07 9.22713e-08
6.94252e-07 3.0223e-07 1.55306e-07
3.37459e-07 5.29701e-07 1.01411e-07
1.95865e-06 6.61261e-07 -3.25643e-08
2.67464e-06 1.13979e-06 4.51353e-07
-3.49349e-08 7.45343e-10 2.66185e-08
-2.97603e-08 -2.53023e-09 1.32514e-08
7.50153e-08 1.94738e-08 -8.32488e-08
5.8823e-08 9.0857e-09 -5.06297e-08
-2.13075e-08 6.84985e-08 1.03028e-07
1.35327e-08 5.62259e-08 1.09883e-07
-1.59041e-08 5.80307e-08 9.63245e-08
2.67503e-07 1.01764e-07 2.05372e-07
4.04657e-07 2.49305e-07 -7.32902e-08
5.76817e-07 2.72001e-07 1.43638e-07
2.33697e-08 7.71217e-08 -8.37804e-08
1.26832e-08 7.86147e-08 -8.00159e-08
-5.12059e-08 5.88601e-07 -3.39277e-07
2.55042e-08 3.3843e-07 -1.99852e-07
-2.92279e-07 3.00618e-06 -5.4981e-07
-9.07025e-07 2.11317e-06 -3.89966e-07
-1.50978e-08 6.4935e-08 -5.73205e-08
2.08948e-07 -1.14979e-08 -3.94344e-08
-1.95031e-08 5.23217e-09 1.13719e-08
1.3349e-08 3.42792e-08 -5.26196e-08
-1.62784e-06 3.80623e-06 -1.65306e-07
-8.09541e-08 3.67658e-07 -2.73e-07
-1.4341e-07 3.17731e-07 -2.23979e-07
2.14343e-05 3.32232e-05 3.25362e-05
1.7187e-06 8.99222e-07 1.34137e-06
9.26902e-05 8.23142e-06 4.63105e-06
0.000105228 8.7776e-06 -9.50723e-06
8.25304e-05 9.05661e-06 -2.01538e-05
0.000100544 8.64192e-06 -5.31775e-06
1.86339e-06 8.73619e-07 1.34567e-06
2.06401e-05 2.64766e-05 2.50693e-05
1.99676e-05 2.6191e-05 2.2749e-05
4.61521e-08 3.01104e-08 -8.3174e-08
-2.55806e-08 5.88827e-09 -3.04099e-08
-1.31297e-08 4.85941e-09 -5.26418e-08
5.18628e-08 1.9094e-08 -6.9056e-08
2.32305e-08 9.0662e-09 -3.41141e-08
1.41465e-07 2.51113e-07 8.9867e-08
1.01499e-07 3.77388e-07 2.29289e-07
-6.60833e-07 9.29594e-08 2.29599e-07
-2.32438e-05 9.55188e-06 -9.26403e-06
-2.36349e-05 1.04401e-05 -1.10487e-05
-8.86817e-07 7.65545e-07 -2.12668e-07
2.16781e-07 2.07252e-07 -1.68566e-07
3.56019e-07 3.90255e-07 1.0587e-07
1.90014e-07 5.30669e-07 -2.80296e-07
1.78581e-07 2.1954e-07 -1.47156e-07
1.21229e-07 4.49944e-09 7.23777e-08
9.92113e-08 5.30572e-08 1.27592e-07
6.19084e-08 3.17433e-08 8.19019e-08
1.20839e-06 1.61861e-06 -1.11213e-07
1.33506e-06 1.83169e-06 -1.138e-07
-5.14451e-05 1.98062e-05 -2.92414e-05
-9.98754e-08 2.15502e-07 5.20741e-09
3.17602e-08 5.8627e-09 2.02436e-08
-2.90947e-08 6.5456e-08 1.18443e-07
6.41107e-07 1.96111e-06 -2.08375e-07
6.63592e-07 1.34939e-06 -1.68317e-07
-5.68818e-08 9.73882e-08 -1.56977e-09
1.20642e-07 1.91271e-07 3.54577e-09
-1.1249e-07 1.7152e-07 -1.22899e-08
-1.75783e-05 1.71569e-06 8.58273e-08
4.00182e-09 1.09584e-07 -5.26562e-08
-2.50145e-09 9.32611e-08 -4.60595e-08
-9.27104e-06 -3.04009e-08 -1.59695e-06
8.02713e-07 7.56667e-07 -2.73432e-07
-1.41424e-05 3.75101e-06 3.48313e-06
-1.14724e-08 1.04498e-07 6.40155e-10
1.71179e-06 6.24263e-07 1.5362e-07
1.88331e-06 4.98979e-07 4.83573e-07
2.6077e-09 6.89715e-08 -3.67563e-08
-9.96641e-09 8.07372e-08 2.32967e-08
1.15105e-07 2.07819e-07 -1.26448e-07
1.80765e-08 -1.03688e-08 -1.85324e-08
1.78389e-08 7.59036e-10 -3.78496e-08
4.48349e-07 4.75258e-07 -1.33075e-07
5.6179e-07 3.9898e-07 6.56438e-08
2.76882e-06 2.22174e-06 9.01231e-07
3.38261e-05 3.05584e-05 3.91069e-05
2.59609e-05 3.03139e-05 3.62015e-05
1.6656e-08 8.02212e-10 5.72835e-10
-1.47931e-08 3.33903e-10 -1.69355e-08
2.45595e-05 2.87443e-05 3.21698e-05
3.59336e-07 9.77986e-08 1.53747e-07
1.78803e-07 1.45913e-07 1.09107e-08
-2.27274e-08 5.65946e-08 -2.66843e-09
-9.95184e-08 1.87838e-07 1.68825e-07
-9.09926e-08 2.06052e-07 1.69408e-07
-5.37766e-07 3.34545e-06 2.78425e-07
-9.26436e-08 4.06566e-08 3.74174e-08
-2.67868e-08 1.19899e-07 9.34467e-08
-5.19677e-05 3.56326e-05 -5.70814e-05
-3.85165e-05 3.06666e-05 -4.52191e-05
-6.88613e-07 3.35377e-06 2.92116e-07
1.04987e-06 1.22231e-06 -2.4882e-07
-2.53605e-07 2.82882e-06 3.71865e-07
-2.74126e-09 -3.14999e-09 -2.47506e-08
1.83325e-07 7.42895e-07 -2.2189e-07
2.89444e-06 3.66828e-05 -3.56318e-05
3.2355e-07 4.4309e-07 -5.78661e-08
9.41633e-07 6.41865e-07 6.6423e-07
6.1189e-08 1.07215e-07 -5.48769e-08
-3.35362e-08 4.81544e-08 2.93146e-08
8.7276e-09 2.23466e-09 -4.20277e-09
-3.93366e-09 3.30614e-09 -2.09656e-08
-1.62478e-05 2.10291e-05 -2.06524e-05
-3.10222e-08 6.36375e-08 9.78379e-08
1.33146e-06 4.98997e-07 -1.90334e-07
-5.21965e-09 -2.58214e-09 1.71894e-09
6.4582e-08 1.29424e-07 1.40768e-07
2.115e-08 1.16246e-09 2.20219e-08
1.61037e-05 2.54469e-05 -1.84986e-05
2.65962e-07 8.62648e-08 -1.0433e-07
1.39358e-05 2.62889e-05 -2.15131e-05
0.000387596 7.39134e-06 -7.9139e-05
0.000371607 1.1228e-05 -8.02938e-05
1.40646e-08 9.78549e-08 9.29315e-08
0.000122935 6.0509e-05 -0.000164315
1.17796e-08 1.10374e-07 8.91955e-08
-5.37696e-08 6.86547e-08 1.25407e-08
-6.22878e-08 5.0065e-08 -6.24778e-09
4.12982e-08 1.52277e-07 1.27644e-07
1.07781e-06 1.11051e-06 -3.53248e-07
1.43174e-08 9.77777e-10 -1.04205e-08
3.47465e-07 2.74345e-07 -9.91674e-08
3.36025e-05 3.64697e-05 -3.94637e-05
3.5041e-07 1.92349e-07 7.27354e-08
3.54018e-07 1.5397e-07 1.36876e-07
3.62486e-07 1.84201e-07 1.15563e-07
3.2407e-05 3.2499e-05 4.60193e-05
-9.15074e-08 4.91038e-08 -1.83508e-08
-8.02619e-08 4.22182e-08 -4.66147e-08
-1.68446e-07 1.04123e-07 -1.2307e-08
-2.99343e-07 2.56484e-07 -6.92282e-08
3.73888e-05 3.7183e-05 5.14914e-05
7.55176e-06 3.16173e-06 -6.4494e-07
2.41711e-06 5.02412e-06 -2.5791e-06
2.54013e-06 4.6371e-06 -2.20713e-06
0.000249318 1.10509e-05 -3.63261e-05
0.000235153 1.23979e-05 -3.59229e-05
4.03349e-06 3.11357e-06 -1.13873e-06