# vtk DataFile Version 2.0
S, Created by Mohamad Ibrahim Cheikh
ASCII
DATASET UNSTRUCTURED_GRID
POINTS 10490 double
-223.577 20.3389 -34.7913
-223.73 23.285 -32.765
-130.491 -29.3093 69.2836
-194.384 -37.8827 -41.0228
-207.472 29.5071 40.0418
-235.877 27.3978 13.4742
-191.274 -39.7119 -41.0821
14.4085 -3.13641 87.7995
-191.071 39.2209 -41.6657
-193.411 36.9316 -42.4288
-251.147 3.21233 -3.38079
-251.007 5.4624 -0.714906
-204.327 29.299 -42.121
18.6073 -1.5213 87.7456
-201.229 30.3635 -43.1793
-151.332 68.7396 -14.6645
-148.541 69.9496 -12.2359
241.381 21.7605 -11.7086
240.378 24.3446 -8.78227
39.5981 72.9125 -47.2842
43.4328 72.2049 -47.9531
45.4325 -3.20347 -86.4929
49.2932 -1.51386 -86.2799
-145.563 -45.4948 -55.4987
-142.058 -46.9194 -55.4243
-191.797 -27.3645 49.9143
-189.472 -30.0427 49.4593
-64.3397 -67.836 51.3368
-66.4806 -66.0162 53.3363
-121.228 -41.6797 -64.8654
-205.492 44.6067 24.1738
-208.433 41.8708 25.9214
-64.8759 -22.5941 81.9647
-61.242 -23.9313 81.9275
44.316 4.18143 86.5221
-201.398 -44.9175 27.5767
-52.3042 82.595 -24.2306
-49.1795 82.256 -26.1121
-109.541 -78.4117 -11.2485
-105.515 -79.2425 -10.0783
-195.497 42.6395 35.3085
-200.947 -43.0031 30.8389
-54.4278 -15.3282 84.5361
3.51904 8.27163 87.6017
226.254 36.0725 -13.2454
223.494 37.2789 -15.4581
-146.997 22.4218 -67.7922
-143.835 23.6829 -68.1925
-167.021 -43.0236 -49.7758
-163.503 -43.4784 -50.8002
-215.266 -7.15827 -44.9375
-215.167 -3.16241 -45.452
-105.635 -17.619 77.8936
-104.098 -21.1555 77.2641
-247.96 -12.5228 7.72452
-247.222 -12.2244 10.5722
-226.224 -18.8463 33.5137
-129.025 -40.8338 -63.5489
238.447 4.07558 -27.6835
236.191 2.11806 -30.1593
30.6828 -3.73367 -87.2628
26.7106 -2.00032 -87.4794
-224.961 -22.5399 32.2504
-47.6606 -75.8719 41.3444
-235.553 -26.7706 15.3058
-110.237 51.2019 -60.2875
-237.919 -25.2891 13.1989
-16.8418 -1.46995 -87.7902
-20.0198 -4.01257 -87.6289
25.3052 7.52969 -87.229
27.3671 3.71136 -87.3987
25.4513 1.71562 -87.5314
45.9715 -6.3236 -86.286
-242.159 -16.9748 16.626
249.587 -5.36898 -9.40942
249.11 -2.30251 -11.8808
-169.141 48.1669 43.8336
30.4577 -13.4812 -86.3058
-165.515 47.9378 45.738
-244.371 -14.443 14.973
243.986 6.928 20.1943
244.544 3.56441 20.2422
-218.53 -34.2527 26.9081
-142.145 -69.4109 21.2692
-139.63 -70.7398 18.7864
-221.096 -32.0563 27.048
-157.971 -59.7999 33.3581
-205.038 32.463 39.2826
-154.319 -61.3636 32.6022
21.326 7.37443 87.3724
-119.067 18.5197 75.2683
-116.398 20.6056 75.2373
25.5779 -59.0322 64.6459
29.1127 -57.661 65.692
-134.538 55.0536 -49.9704
-136.825 52.5632 -51.8562
-177.092 57.9189 23.4479
-176.694 59.3928 19.8531
-69.8581 65.3141 -53.6711
-62.7501 16.9346 -83.5173
-66.3665 16.9206 -83.1772
-66.3256 66.8626 -52.2955
124.46 57.7469 50.128
121.027 58.3532 50.4541
-132.441 -69.8471 26.7935
-132.815 -68.001 30.9874
-188.863 35.1205 46.2985
-185.116 37.2913 46.4534
-232.726 13.1742 -30.6501
-59.7188 75.2796 40.5012
-61.0346 76.7923 37.2943
-231.927 16.7984 -29.6016
-175.271 -46.9573 -42.1659
-178.789 -11.2296 60.8634
-181.798 -8.37546 60.2284
-195.819 53.7536 12.646
-198.373 52.0669 14.6693
-195.137 -6.40374 -55.1457
-196.11 -2.36396 -55.044
-155.755 25.055 64.3904
-159.461 22.4868 64.2277
-196.21 -54.5515 -7.39865
-193.182 -56.048 -5.79654
-91.0876 75.2462 -32.6529
-87.1015 75.6327 -33.0885
-39.2315 -78.9674 -36.3279
-42.7325 -77.6544 -38.6034
-35.7045 20.5819 -84.6422
-119.25 -59.0775 -50.1282
-116.054 -58.3898 -51.8233
-103.565 -58.9114 54.4085
-107.46 -57.22 55.2819
-176.074 46.9085 -41.8092
26.9038 14.0102 -86.3661
23.7858 15.79 -86.1708
-175.602 44.5878 -44.5044
-89.4447 -39.5904 72.091
-93.3141 -38.4523 72.1065
-1.70723 -75.0125 -46.0084
2.6318 -75.2487 -45.6156
-158.022 -33.1963 -59.8732
-154.736 -36.6321 -58.9127
25.6252 72.928 48.4263
28.1152 70.9239 51.1568
-166.578 38.8135 53.2944
-168.989 36.44 54.0356
126.644 60.2641 46.3533
124.996 62.238 44.2446
55.9189 20.2582 83.3713
-158.149 12.6471 67.2453
-155.545 9.85715 68.445
-43.8852 73.5758 -45.7691
70.9346 53.0828 -65.652
-41.2021 75.2481 -43.2884
222.064 -27.8283 -30.5325
225.276 -26.0124 -29.2252
-17.2381 79.7151 -36.7847
-20.0008 78.4553 -39.2402
247.477 -7.06407 13.9944
245.671 -9.07239 16.5073
-182.892 19.8556 57.0485
-181.351 22.6987 56.5886
-55.489 68.7087 51.4407
-53.2349 70.579 49.1492
-221.673 26.3872 -32.1191
245.289 -12.7014 14.7129
-123.336 -44.6597 -62.3468
-128.466 -46.9003 -59.3618
-126.782 -44.2468 -61.7924
-219.064 -11.0532 41.7915
-206.368 49.8795 -6.48109
-208.053 48.517 -9.51761
-173.562 -35.139 53.1147
-196.133 -34.8661 -42.6459
-56.8354 10.6443 85.0601
-99.4238 80.6861 4.8488
-149.825 -21.4677 67.3416
-153.215 -21.7134 66.321
-105.566 79.8389 2.31467
-103.212 80.0655 5.41293
-208.26 -1.82524 -49.3012
-211.702 -0.426152 -47.5055
6.87889 76.6214 -43.213
8.5391 74.8827 -46.1266
-16.6635 86.0717 -17.3685
-20.351 85.3634 -20.159
12.3052 74.3587 -46.8641
-209.318 34.9081 -34.0774
-209.427 37.4827 -31.1335
-243.669 12.2907 -17.9911
-205.994 40.0922 -30.683
-237.952 16.7298 23.0648
-240.124 13.5357 22.3944
-198.67 34.6945 41.3279
-44.0904 -51.8597 -69.4015
-47.9356 -52.1779 -68.8487
-64.5012 78.4612 -32.8403
-61.3785 79.4472 -31.1595
-198.904 37.6909 38.4673
-195.379 39.985 38.3623
193.193 51.8479 -22.051
191.208 51.6125 -24.5776
-17.4173 72.7298 -49.1654
-16.091 70.9974 -51.6882
-160.714 -8.67681 67.1303
-158.259 -5.14378 68.1993
-159.179 -12.1846 67.0328
-155.586 -13.9491 67.7181
-181.217 -39.3681 -46.6217
-187.068 -34.8942 -47.3499
234.201 -8.19813 31.0077
231.367 -8.83961 33.3482
-185.724 -37.8053 -45.7354
-220.423 -36.3319 -21.8074
-223.2 -33.1948 -23.2994
-74.2009 69.6374 47.1229
-199.249 43.3711 -31.6613
-202.413 40.5164 -32.9593
-78.9514 71.9774 42.4276
-75.1052 71.8087 43.5535
-199.863 -47.1005 -25.2003
-196.405 -49.1627 -24.5821
-156.238 -38.5633 57.1692
-155.215 -34.6048 59.9745
-162.909 56.2598 -36.4637
-159.761 58.0884 -35.2826
245.94 -16.0778 8.95234
246.756 -13.0534 10.9095
-202.191 25.1238 -45.9097
246.469 -16.6405 5.45935
-222.675 -40.7295 -3.81025
-219.564 -42.6765 -4.53616
-225.912 36.4541 -12.9115
-224.087 36.2132 -16.8755
-228.9 -34.8682 10.6499
-231.376 -33.5773 7.89143
-225.472 -37.7616 9.69468
119.572 74.8259 19.8651
-172.164 -51.1023 -38.7774
115.378 75.641 19.8152
47.9137 12.1663 -85.5273
51.501 10.7704 -85.4592
-180.221 -22.1754 57.2343
-179.946 52.3219 -32.2811
-165.452 0.847638 66.2709
-168.575 2.82508 65.2445
-181.02 -17.4175 58.556
36.4523 -59.7546 63.3301
37.7865 -57.2078 65.5474
-159.985 -59.9393 -31.9008
-182.767 -21.798 -56.3844
-184.312 -18.0304 -57.0949
-11.9376 15.0667 -86.5999
-188.59 -54.9978 19.1015
-192.466 -53.1211 19.6702
-145.938 9.33589 -71.0587
-143.737 12.1392 -71.1841
-174.367 52.4213 35.6882
-173.43 50.7185 38.59
-187.178 39.7177 -43.3251
-231.498 33.4963 -7.79796
-229.092 35.9705 -4.95943
-234.903 30.8714 -5.94112
241.404 7.72092 23.4445
239.892 10.8368 24.1019
240.609 13.4019 21.8298
-138.879 -61.8301 -39.4929
-138.123 -60.1626 -42.2934
-141.495 -58.2503 -43.5859
-200.351 -41.1644 -33.691
-218.716 20.1157 -38.5059
-52.6806 9.04624 85.571
-56.6797 -81.183 27.5682
-60.1941 -81.4607 25.7787
-152.606 56.1703 41.6853
-153.381 58.0563 38.642
-189.413 -9.89783 -57.04
-186.065 -8.87958 -58.5369
64.9123 -8.70861 84.5712
67.8937 -7.074 84.437
-196.835 -37.2194 40.1904
-200.415 -34.6098 40.3561
-180.668 -48.2455 -37.6845
-174.532 -52.0916 -36.0704
-215.618 -38.5089 23.8561
-218.655 -36.4149 23.7604
-178.254 -50.9817 -35.4216
-121.559 47.9441 -60.3014
-71.2642 59.6259 59.7242
26.8711 -68.3005 54.6868
24.8083 -66.5876 56.8748
-87.1938 -8.58937 -82.0939
-84.0137 -6.28246 -82.7066
-31.7377 85.8901 -15.6065
-35.4287 85.4119 -17.1794
-75.0727 60.1295 58.6382
-117.624 48.9794 -60.4246
67.0908 -10.9666 -84.0991
63.3416 -11.5729 -84.3733
-122.323 44.7375 -62.5351
-76.1188 64.1328 -54.0519
-79.642 64.3062 -53.218
-210.937 -46.4386 -11.832
-207.911 -47.2774 -14.7161
-70.3838 -66.9054 51.5865
-82.3971 61.8068 -55.6121
181.004 57.5728 -20.4508
187.792 54.7428 -20.7268
-57.9873 -57.7684 -63.2071
-60.2489 -59.9491 -60.8744
185.03 56.506 -18.9618
-52.2152 4.93406 85.941
170.803 -60.94 -21.4146
166.657 -61.8363 -22.7991
-242.161 -11.2307 20.9366
-241.443 -7.7144 23.3971
231.623 25.861 -22.5153
229.371 25.1803 -25.8603
225.985 27.6876 -26.9257
-235.384 -18.9694 -24.5116
-234.85 -16.6287 -26.7379
-226.067 27.1635 -27.3715
-222.95 28.4619 -29.1255
-220.768 31.3766 -28.1507
-250.634 -7.29477 -0.178484
-176.046 45.3075 43.5526
58.6635 51.2679 -68.5147
59.7466 48.4393 -70.4315
128.106 68.3807 32.5399
131.599 68.3047 30.9547
-176.932 47.6164 40.5463
-181.034 46.7548 39.3132
18.7049 -86.4179 15.2678
142.033 69.3643 -21.5118
141.094 68.3964 -25.0726
23.2385 -86.1703 15.8921
181.098 -44.0245 42.315
25.6368 -86.6619 12.3796
-189.026 21.6444 -53.8609
-189.446 17.8983 -55.0421
-212.326 -45.0145 14.0794
-120.848 -47.0032 -61.2102
-24.3206 -37.273 79.261
52.3155 18.5374 -84.0553
55.8294 16.7502 -84.1536
-25.2908 -41.1221 77.296
-119.137 -6.5342 -77.2241
-115.757 -7.75006 -77.7393
-200.049 16.4737 50.7247
-215.148 -43.2643 14.3201
-153.427 33.046 61.3999
-156.852 31.3621 61.2236
-157.696 28.2126 62.4775
-79.9676 -83.4309 0.602942
-63.1284 72.9474 -43.986
-62.4363 70.8993 -47.3289
-79.8045 -83.3553 -4.02107
-209.642 -18.6816 44.8801
-59.87 71.5244 46.7912
-205.671 -19.6741 46.6695
-191.283 -46.3885 33.3537
-190.154 -45.0077 35.9363
-195.131 47.3249 29.0287
-192.216 -42.6381 37.4505
-97.6827 19.8229 78.631
-94.0898 21.0011 78.8612
-195.846 -41.8723 35.9835
-247.68 -8.81199 12.4833
188.065 -42.0217 40.5957
184.93 -44.2656 39.9694
-127.168 75.5088 7.90707
-123.534 76.0413 9.66239
48.8644 1.69473 86.3064
130.446 15.5937 -73.604
-179.704 46.5252 -40.3199
198.595 13.1804 52.3604
200.49 9.43389 52.2853
113.347 74.8979 23.6937
109.605 75.3505 24.4034
149.559 63.7437 -30.6956
145.73 65.3547 -29.5413
-166.875 -45.6698 -47.4228
129.843 19.3575 -72.8369
-209.803 43.7077 -21.0857
-206.942 46.1309 -19.3092
126.468 20.2098 -73.3308
-61.8902 -0.317082 85.2933
-59.1784 2.60435 85.4895
[...]
POINT_DATA 10490
VECTORS F double
1.28452e-08 3.05017e-08 7.72401e-09
1.3026e-07 9.12895e-08 -4.40214e-08
1.35224e-07 7.01321e-07 3.27863e-07
5.84042e-08 -7.26387e-09 -2.71736e-08
2.8873e-07 2.63283e-07 -1.08565e-08
1.84767e-07 1.98414e-07 -7.4428e-09
8.53801e-08 2.68077e-08 -7.45821e-08
-1.86009e-06 2.18804e-06 1.15532e-07
9.79112e-07 7.48762e-07 1.5511e-07
1.07592e-06 6.44244e-07 -3.9695e-08
1.25488e-08 7.52308e-08 -4.26512e-08
1.10262e-08 5.92612e-08 -2.12302e-08
9.86017e-08 3.65464e-07 1.95653e-07
-2.30475e-06 3.76193e-06 1.25058e-07
1.41475e-07 1.15319e-07 3.7099e-10
3.36386e-06 6.26318e-07 -1.3142e-06
4.36144e-06 7.50352e-07 -2.19277e-06
-1.16425e-08 2.18851e-08 1.12926e-08
-1.36462e-08 2.12565e-08 1.32e-08
-2.83787e-05 5.99121e-06 6.32876e-06
-2.75475e-05 5.04852e-06 4.54692e-06
-3.24388e-06 1.86271e-06 -2.77603e-07
-2.95122e-06 1.35846e-06 -2.30263e-07
3.10546e-08 2.23105e-07 -1.92861e-07
5.76745e-08 2.49949e-07 -2.29692e-07
1.40986e-08 1.66931e-07 9.81491e-08
-1.20082e-09 1.42507e-07 8.59982e-08
-4.42832e-08 1.84647e-07 2.37196e-07
-1.85249e-07 1.42242e-07 1.47789e-07
2.53446e-07 2.1432e-07 -1.95705e-07
5.78688e-07 2.64055e-07 1.15014e-07
3.81104e-07 2.90395e-07 -9.38905e-08
1.12794e-07 2.94983e-06 8.24068e-07
-3.20891e-07 1.52748e-06 4.16814e-07
-1.97084e-06 2.98432e-06 -2.06406e-08
1.37221e-08 2.86899e-08 5.90002e-08
0.000100169 2.01257e-05 4.21292e-05
0.000109838 2.38707e-05 4.98675e-05
3.94245e-08 6.67229e-10 -5.16572e-08
3.38141e-08 -2.5529e-09 -2.32744e-08
6.49854e-07 3.58556e-07 7.52028e-09
2.61608e-08 2.92903e-08 6.17133e-08
3.2587e-07 2.75756e-06 5.25689e-07
-1.46564e-06 3.51977e-06 -3.25141e-07
-2.3301e-08 1.40108e-08 -1.05686e-08
-3.93288e-08 3.54729e-08 1.5933e-08
1.30907e-06 8.90932e-07 -5.28523e-08
1.10534e-06 1.77833e-06 3.32161e-07
-5.34609e-08 1.05567e-07 -6.92846e-08
-4.66953e-08 1.1883e-07 -8.33037e-08
5.43639e-08 1.50319e-07 -5.58296e-08
7.17093e-08 1.59426e-07 -5.26536e-08
9.65077e-07 2.3736e-06 6.97128e-07
1.01959e-06 2.29162e-06 7.95646e-07
-4.10594e-08 9.98338e-08 4.88784e-10
-2.88889e-08 7.51847e-08 4.23203e-09
5.84734e-08 9.80613e-08 1.03469e-07
1.78948e-07 3.46272e-08 -6.67318e-08
-1.8815e-08 1.25747e-08 -1.79897e-08
-1.78646e-08 7.78852e-09 -1.65818e-08
-2.53952e-06 3.02256e-06 -2.38646e-07
-2.31218e-06 3.94598e-06 -1.76664e-07
1.2203e-08 8.78156e-08 7.17971e-08
-3.81621e-08 5.34712e-08 9.27403e-08
-1.1583e-08 1.26372e-08 2.81242e-10
1.38308e-05 6.38106e-06 2.32313e-06
-2.1511e-08 3.73838e-08 2.4158e-08
-4.96141e-07 4.93047e-06 -7.0903e-08
1.57351e-07 3.80441e-06 -1.78608e-07
-6.33638e-07 7.09331e-06 5.89796e-07
-3.44547e-06 5.44526e-06 9.91442e-08
-2.26e-06 4.11317e-06 1.65553e-10
-1.23929e-06 2.15317e-06 -2.38635e-07
5.24876e-09 4.55515e-08 5.58687e-08
2.55938e-09 1.29608e-08 9.24252e-10
-3.44329e-09 4.67829e-09 -9.74137e-09
3.15516e-07 3.95888e-07 -2.85966e-07
9.87457e-07 1.57691e-06 -2.03653e-07
4.65612e-07 5.71158e-07 -3.92338e-07
7.31855e-10 2.94071e-08 2.98297e-08
-9.67423e-09 1.07402e-08 1.06257e-08
-2.79557e-09 1.10233e-08 2.19441e-09
1.91235e-08 1.59578e-08 3.93293e-08
2.56947e-08 5.91099e-09 4.03141e-08
1.31173e-08 3.24648e-09 2.41617e-08
1.56533e-08 1.85092e-08 3.76025e-08
3.76289e-08 3.3199e-08 8.13314e-08
2.35632e-07 3.06233e-07 -1.02492e-07
3.90102e-08 2.82945e-08 7.58619e-08
-5.56222e-08 4.66523e-06 -3.92097e-07
2.20353e-06 2.83876e-06 -2.71712e-07
2.01977e-06 3.32562e-06 -5.28241e-07
-2.46494e-08 1.84634e-07 1.69794e-07
-6.53675e-08 2.72309e-07 2.42565e-07
5.15828e-06 3.2946e-06 1.92942e-06
6.58342e-06 2.65765e-06 5.67175e-07
4.20648e-07 3.46603e-07 -4.67181e-07
1.33268e-06 6.03193e-07 -3.52376e-07
2.95798e-05 2.10749e-05 2.09329e-05
2.27377e-06 1.47279e-06 8.94735e-08
2.02175e-06 1.73717e-07 -1.62161e-07
2.84874e-05 2.37234e-05 2.59081e-05
-1.02587e-06 3.72614e-07 -1.17408e-07
-1.08922e-06 4.03328e-07 -1.46591e-07
3.13931e-09 1.27166e-08 3.50494e-08
-1.04323e-09 1.7716e-08 3.83307e-08
1.03489e-06 5.55419e-07 9.55259e-08
1.01414e-06 7.02028e-07 -6.87839e-08
6.21512e-08 8.60357e-08 -2.07973e-08
4.85478e-05 2.52271e-05 -3.81255e-05
4.91133e-05 2.49782e-05 -4.15917e-05
3.55428e-08 8.86841e-08 1.62315e-08
4.48155e-08 -2.27605e-08 2.53973e-09
4.43115e-07 3.81486e-07 2.2975e-07
2.19771e-07 1.41796e-07 1.00935e-07
6.90455e-07 3.7609e-07 -2.89655e-07
8.31836e-07 3.96747e-07 -3.09926e-08
-7.06422e-09 1.20266e-07 -1.09056e-08
1.29012e-07 1.66753e-07 -6.3436e-08
3.76665e-07 2.48848e-06 -8.56743e-07
1.29821e-06 9.5613e-07 5.98557e-08
7.80075e-09 -1.7561e-09 -1.23817e-08
-1.58166e-09 -4.77851e-10 1.10712e-08
2.78876e-05 7.92845e-06 8.746e-06
2.93068e-05 9.618e-06 1.25393e-05
-4.424e-08 5.03469e-08 -1.03593e-07
-3.04262e-08 6.48761e-08 -1.26381e-07
1.67364e-06 1.09515e-05 2.57658e-06
1.27831e-07 1.59031e-07 -2.24654e-07
1.24501e-07 1.85135e-07 -2.42728e-07
3.78565e-08 1.44756e-07 1.65558e-07
8.39724e-08 2.34103e-07 2.62294e-07
2.57348e-06 7.73956e-07 -4.58535e-07
-2.28864e-07 6.60432e-06 1.06261e-06
-2.28855e-06 3.50418e-06 5.64766e-07
7.01809e-07 5.74802e-08 -2.81445e-07
2.32373e-07 5.65189e-07 3.45683e-07
2.93542e-07 8.85696e-07 5.18824e-07
-6.30183e-08 8.18994e-08 -1.33244e-07
-6.19077e-08 5.90738e-08 -9.78876e-08
1.25465e-07 2.41156e-07 -1.74249e-07
2.62006e-08 1.52532e-07 -1.03271e-07
-4.80333e-05 1.88885e-05 -2.53334e-05
-4.19002e-05 2.08859e-05 -2.61369e-05
2.73578e-06 1.22682e-06 1.53425e-07
2.36961e-06 1.41823e-06 -4.91253e-08
-5.41419e-07 1.67661e-07 -3.68741e-08
-1.44396e-06 3.12555e-08 4.5547e-07
-8.65243e-07 6.91755e-07 -9.70385e-08
9.4961e-07 1.053e-06 7.53839e-08
2.28695e-07 2.73762e-07 2.42033e-08
4.49372e-05 4.07784e-05 6.02776e-05
-5.90321e-06 3.05306e-06 1.68764e-06
4.86513e-05 3.95516e-05 6.30829e-05
-2.42296e-09 7.90958e-09 -9.36641e-09
-1.57511e-09 6.21785e-09 -7.02006e-09
8.51747e-05 5.14757e-05 0.000106664
7.7038e-05 5.44746e-05 0.000104107
-6.46594e-10 -3.56678e-10 1.2204e-09
-1.16671e-09 7.8986e-10 2.55985e-09
3.75959e-07 5.57745e-07 -4.6558e-08
3.11417e-07 6.17436e-07 -1.25478e-07
4.01834e-05 3.22778e-05 -3.78061e-05
4.00273e-05 3.26317e-05 -4.15516e-05
2.04954e-07 7.88011e-08 -1.08442e-07
-3.88667e-09 -1.54015e-09 6.60093e-09
2.45412e-07 1.95487e-07 -1.99467e-07
8.69788e-09 1.31304e-07 -1.06045e-07
2.27969e-07 3.63167e-08 -8.32698e-08
-1.4424e-09 1.34893e-07 3.47517e-08
5.74878e-07 3.06512e-07 1.17859e-07
6.15924e-07 3.32132e-07 4.46705e-08
9.35431e-08 1.37813e-07 1.28596e-07
9.22578e-08 4.58335e-09 -5.56944e-08
1.91045e-06 3.85885e-06 -3.26609e-07
3.46323e-05 5.31714e-06 -1.53729e-06
-4.26156e-08 2.70433e-07 7.4602e-08
-7.56969e-08 3.71798e-07 1.00315e-07
3.02883e-05 5.10936e-06 -7.11088e-06
3.23698e-05 5.60185e-06 -7.29324e-06
4.86355e-08 9.50115e-08 -2.86707e-08
6.85688e-08 1.92486e-07 -3.91382e-08
-2.319e-05 3.13109e-05 5.50658e-05
-3.61478e-05 2.83364e-05 4.51826e-05
0.000271522 1.66683e-05 5.07055e-05
0.00023686 2.1998e-05 6.38732e-05
-3.63347e-05 2.19939e-05 3.37293e-05
3.04683e-07 2.28118e-07 4.5485e-09
8.9814e-07 4.87263e-07 -1.53042e-07
1.07718e-07 1.84229e-07 -5.27606e-08
8.06348e-07 6.19116e-07 1.4619e-07
6.95351e-08 2.08614e-07 -6.34877e-08
8.25864e-08 1.7565e-07 2.24825e-09
4.21429e-07 -1.91552e-07 4.08837e-07
4.34689e-07 3.1631e-07 -2.7017e-07
4.00099e-07 4.02662e-07 -3.39268e-07
6.39358e-05 2.24968e-05 3.83743e-05
6.82838e-05 2.12805e-05 3.77908e-05
7.05586e-07 -4.5428e-08 4.91185e-07
5.16308e-07 2.98255e-07 1.10674e-08
-8.01475e-08 3.82098e-08 3.87458e-09
-1.11862e-07 6.09777e-08 2.15066e-08
1.05405e-05 4.69601e-05 6.90103e-05
-4.80162e-06 4.30249e-05 5.92808e-05
7.33246e-07 4.22444e-07 2.6952e-07
8.99026e-07 3.51084e-07 2.81896e-07
1.86329e-07 1.57254e-07 8.27549e-08
3.03367e-07 3.72443e-07 1.62052e-07
1.03118e-07 1.00694e-07 -1.341e-07
1.17164e-07 7.85431e-08 -1.14553e-07
1.50667e-09 1.00868e-08 1.27347e-09
1.10134e-09 9.91934e-09 1.69381e-09
8.90466e-08 6.46402e-08 -9.7703e-08
3.54079e-09 3.13e-09 -9.597e-09
-1.26904e-09 5.3017e-09 -6.06341e-09
3.52258e-05 1.52089e-05 -1.56844e-05
8.06626e-07 6.50884e-07 2.70124e-07
8.4351e-07 6.12053e-07 1.18165e-07
2.98487e-05 1.04927e-05 -1.10003e-05
3.37175e-05 1.49913e-05 -1.75981e-05
4.10893e-09 1.43135e-08 -3.07434e-08
2.65864e-10 7.76089e-09 -1.57824e-08
6.50906e-08 2.62928e-07 1.99136e-07
1.96853e-07 2.44187e-07 2.03267e-07
1.55382e-06 1.12478e-06 8.85508e-07
1.93471e-06 1.02451e-06 6.14163e-07
1.96252e-09 6.94544e-09 5.872e-09
6.92068e-10 7.43826e-09 6.98006e-09
3.35623e-07 2.36173e-07 -5.1723e-08
6.5228e-10 3.03093e-09 5.63324e-09
-2.85766e-08 2.01335e-08 -1.07552e-08
-2.17326e-08 1.01076e-08 3.36876e-08
3.18058e-07 2.42373e-07 2.97333e-09
4.12435e-07 3.20259e-07 1.67334e-08
1.22085e-08 -1.70194e-09 2.6553e-08
-2.55369e-09 1.17242e-08 4.07192e-08
1.65557e-09 -5.41824e-09 -1.6389e-08
-2.18972e-06 2.56229e-07 6.48559e-07
5.21575e-08 -1.99467e-08 -2.06423e-09
-2.26098e-06 3.27445e-07 3.6185e-07
6.83671e-07 1.45147e-06 2.53365e-07
6.00403e-07 9.60728e-07 1.6538e-07
1.09105e-07 3.17979e-07 1.65262e-07
1.62744e-06 5.35951e-07 -2.42e-07
4.5852e-07 2.06191e-07 1.37514e-07
4.70389e-07 2.89237e-07 1.36273e-07
1.49628e-07 3.43938e-07 1.58936e-07
-3.66238e-08 1.79944e-07 1.72365e-07
-1.68039e-08 1.90378e-07 1.67342e-07
4.22948e-08 1.19009e-08 -4.83295e-08
7.02151e-08 6.51881e-08 -5.30672e-08
2.28579e-07 1.2541e-07 -1.29945e-07
1.07889e-06 9.35258e-06 1.60896e-06
6.57018e-09 9.57705e-09 3.5518e-08
1.63566e-09 8.34711e-09 2.45014e-08
1.11341e-06 7.63181e-07 -1.79692e-07
7.89571e-07 1.13123e-06 -2.28587e-09
1.86214e-06 1.19854e-06 -6.46609e-07
1.30553e-06 9.30238e-07 -5.04271e-07
1.10224e-06 1.07521e-06 4.02664e-07
3.65623e-07 3.07986e-07 -5.93339e-09
3.37275e-07 2.73403e-07 7.55172e-08
2.88408e-07 2.26944e-07 -2.16859e-07
-1.14724e-08 1.94249e-08 8.0645e-09
-7.82037e-09 2.42869e-08 -1.38996e-09
-8.27498e-09 2.38796e-08 -3.49553e-09
7.35916e-08 2.94616e-08 -7.78084e-08
1.32686e-08 5.63123e-08 -8.54096e-08
7.45026e-08 1.14637e-07 -1.82818e-07
-1.14554e-08 6.70987e-08 -7.36435e-08
1.33989e-07 2.08656e-07 1.5825e-08
3.01451e-06 5.95416e-06 -4.02242e-07
2.38662e-08 1.86454e-08 6.09137e-08
1.73192e-08 1.80982e-08 6.21404e-08
9.46233e-07 1.53363e-07 2.17461e-07
3.58991e-06 1.19607e-06 -5.24316e-08
1.43982e-07 2.54971e-07 -1.0278e-07
1.93945e-07 1.48625e-07 -9.80205e-08
2.03439e-07 5.35098e-07 3.59826e-08
2.38678e-08 9.64534e-07 7.8456e-08
1.97003e-08 7.21894e-08 7.8665e-08
1.4416e-08 7.34838e-08 7.17851e-08
2.1241e-08 2.41273e-08 -4.3356e-08
1.86432e-08 4.52165e-09 -1.75745e-08
1.51191e-08 3.45145e-09 2.23025e-08
1.72989e-08 1.24149e-08 3.85168e-08
1.49683e-08 1.83203e-08 -3.55906e-08
8.37557e-06 4.26701e-06 1.32546e-06
2.63062e-05 2.04968e-05 -1.66201e-05
-4.56372e-09 2.07003e-07 2.58809e-07
-1.09682e-07 1.6772e-07 2.0222e-07
8.3832e-07 1.64684e-06 -2.81319e-07
7.47992e-07 1.93802e-06 -2.40239e-07
0.000191041 1.68489e-05 4.51609e-05
0.000172887 1.96924e-05 5.42526e-05
2.4333e-05 1.82061e-05 -1.4855e-05
8.2858e-06 6.1689e-06 3.02569e-06
-8.54152e-07 7.11469e-07 -1.76201e-07
-8.7923e-07 5.78822e-07 -1.60204e-07
5.37998e-06 4.23205e-06 1.73918e-06
2.66552e-05 1.97266e-05 1.88099e-05
2.3999e-05 1.56086e-05 1.44635e-05
1.10553e-09 -5.8226e-09 2.04407e-08
-2.12637e-08 1.58511e-08 -1.41451e-08
-1.3434e-07 6.20832e-08 5.80785e-08
2.27239e-05 1.5612e-05 1.32289e-05
-2.12517e-07 6.34476e-08 -5.16637e-08
-1.67318e-07 7.93638e-08 2.40154e-08
-4.59398e-07 2.8053e-07 -2.04792e-07
-2.83863e-07 1.588e-07 -1.2199e-07
-2.08109e-07 7.99685e-08 -1.03134e-08
9.48477e-07 5.45755e-06 -2.4278e-07
9.2669e-09 5.355e-09 -6.18928e-09
9.61736e-09 7.10863e-09 -1.06729e-08
-1.46244e-08 3.34861e-08 -2.74658e-09
6.81695e-09 2.36921e-08 1.64242e-08
-5.60903e-09 1.4229e-08 9.28122e-09
-1.55737e-08 2.85409e-08 1.08791e-08
-1.91775e-08 2.4917e-08 5.91811e-09
-3.25443e-08 5.70775e-08 -5.91012e-09
4.53591e-08 3.36437e-09 -5.08688e-08
2.80447e-07 3.28607e-07 4.25268e-08
2.84181e-07 1.59101e-07 -1.10855e-07
2.06792e-07 1.96033e-07 1.99466e-08
-2.32873e-08 9.82957e-08 -1.40867e-08
9.72897e-07 4.87079e-07 -2.52332e-08
-3.70888e-06 3.49879e-06 2.22926e-06
-2.48006e-06 3.59142e-06 2.21242e-06
-1.08573e-06 7.46692e-08 3.66403e-07
-9.33314e-07 -4.9479e-08 5.94963e-07
1.56104e-06 7.69145e-07 -6.92721e-08
1.4218e-06 2.60074e-07 4.92285e-07
-1.42773e-08 9.08146e-09 5.35455e-08
-5.46888e-07 -2.34855e-08 -5.17809e-07
-9.60278e-07 7.00355e-08 -4.70552e-07
-4.47603e-09 4.89537e-10 3.45423e-09
-1.07117e-08 6.45004e-09 1.23234e-08
-1.07134e-08 -8.37322e-10 -3.14297e-09
1.78133e-07 5.21542e-07 1.33046e-07
1.33404e-07 5.08009e-07 1.08977e-07
-2.73728e-08 2.21624e-08 2.03187e-08
3.50422e-07 2.46511e-07 -2.73999e-07
-6.5043e-08 2.48954e-07 1.14627e-07
-1.53469e-06 2.12232e-06 3.51108e-07
-1.45993e-06 2.03592e-06 2.86656e-07
-1.52838e-07 2.26408e-07 1.14327e-07
-1.07193e-07 1.08843e-06 -7.18506e-08
-4.66756e-08 1.14487e-06 -1.05627e-07
3.17472e-07 6.02992e-07 -4.2543e-08
-2.63398e-08 2.68134e-08 3.256e-08
1.59408e-06 2.80271e-06 -1.02077e-06
1.87459e-06 1.92479e-06 -3.97994e-07
-2.04065e-07 2.1337e-06 -1.02656e-06
-3.21698e-08 3.6941e-09 -1.12786e-08
3.86658e-05 2.7862e-05 3.94128e-05
2.96463e-05 2.69387e-05 3.55662e-05
6.85476e-09 -1.35736e-10 -1.38353e-08
2.07906e-09 7.84619e-08 3.38493e-08
4.41923e-05 2.67365e-05 -3.39462e-05
1.40932e-08 1.33611e-07 6.39298e-08
2.37051e-08 2.76788e-08 5.51397e-08
3.97738e-08 2.35811e-08 5.53002e-08
3.64874e-07 3.83789e-07 -3.25398e-07
2.5672e-08 2.39002e-08 4.33431e-08
2.66909e-06 6.53271e-06 -1.24095e-06
3.90555e-06 3.55227e-06 -3.7549e-07
1.24018e-08 6.63799e-08 8.55067e-08
-1.32373e-08 7.40476e-08 2.01196e-08
-2.43302e-08 1.32676e-08 2.75325e-08
-1.26178e-08 4.59353e-10 7.65595e-09
7.39743e-06 1.57838e-06 -5.06918e-07
9.41082e-06 2.34653e-06 -3.73612e-06
-2.43127e-06 1.93944e-06 1.30443e-07
-1.63378e-07 4.02038e-07 4.97259e-08
2.57057e-06 1.01498e-06 -2.31493e-07
-5.81006e-08 7.90589e-08 7.07789e-09
-2.41491e-08 9.21202e-08 -5.28418e-09
-1.82219e-06 1.23663e-07 6.76342e-07
-2.11222e-06 5.72737e-07 -6.06952e-07
-1.01373e-06 2.48979e-07 -8.76726e-08
-1.19001e-06 1.4831e-07 -3.90611e-07
-7.53835e-08 1.00906e-07 -6.46995e-08
-4.37099e-07 3.90804e-07 8.46471e-09
5.05732e-07 1.67419e-07 -2.69041e-07
5.04621e-07 1.86507e-07 -2.16552e-07
-4.58691e-07 4.03835e-07 1.4446e-08
6.5807e-07 4.95741e-06 7.68899e-08
1.80494e-06 4.17436e-06 2.58004e-08
1.20602e-06 3.58476e-06 1.75084e-07
1.30651e-08 1.54241e-08 5.49298e-08
7.98765e-06 1.71476e-06 3.57449e-07
8.93659e-06 1.91975e-06 -1.3479e-06
-1.5078e-06 6.33217e-06 -1.10243e-06
1.25253e-08 -2.06945e-09 1.48561e-08
1.98017e-06 4.09335e-06 7.03762e-08
3.14947e-06 9.11354e-06 4.95861e-06
4.93829e-06 5.97011e-06 2.577e-06
1.01194e-05 8.85091e-06 4.1682e-06
1.01673e-07 4.09594e-07 6.72035e-08
6.54968e-08 5.37793e-07 4.73538e-08
-2.86895e-07 1.47288e-06 1.667e-07
-4.30264e-08 8.00575e-07 9.31056e-08
6.91513e-07 3.01053e-07 1.54592e-07
3.38883e-07 5.29343e-07 1.01881e-07
1.94976e-06 6.58205e-07 -3.25015e-08
2.65385e-06 1.12822e-06 4.42474e-07
-3.5243e-08 7.90871e-10 2.69721e-08
-3.00351e-08 -2.51319e-09 1.3507e-08
7.49639e-08 1.93658e-08 -8.29794e-08
5.88088e-08 9.00895e-09 -5.04582e-08
-2.13625e-08 6.89163e-08 1.03672e-07
1.37017e-08 5.65656e-08 1.10569e-07
-1.58845e-08 5.83805e-08 9.69333e-08
2.67012e-07 1.01547e-07 2.05109e-07
4.03503e-07 2.48331e-07 -7.21951e-08
5.74684e-07 2.70908e-07 1.43455e-07
2.33385e-08 7.68824e-08 -8.35409e-08
1.2665e-08 7.83788e-08 -7.97885e-08
-5.03159e-08 5.86447e-07 -3.38149e-07
2.60212e-08 3.37506e-07 -1.994e-07
-3.04379e-07 3.02368e-06 -5.52551e-07
-9.18908e-07 2.1326e-06 -3.9343e-07
-1.50418e-08 6.47364e-08 -5.71528e-08
2.08272e-07 -1.11916e-08 -3.93747e-08
-1.98029e-08 5.4045e-09 1.15846e-08
1.33369e-08 3.41594e-08 -5.24619e-08
-1.61449e-06 3.81409e-06 -1.65633e-07
-8.05634e-08 3.67182e-07 -2.7265e-07
-1.42941e-07 3.173e-07 -2.23678e-07
2.12486e-05 3.27848e-05 3.21332e-05
1.70888e-06 8.93289e-07 1.33031e-06
9.14145e-05 8.10893e-06 4.88283e-06
0.00010366 8.62666e-06 -8.93905e-06
8.16948e-05 8.89261e-06 -1.93346e-05
9.92093e-05 8.48536e-06 -4.8546e-06
1.85785e-06 8.68407e-07 1.32748e-06
2.04588e-05 2.62399e-05 2.48678e-05
1.9753e-05 2.59678e-05 2.25803e-05
4.60645e-08 3.0003e-08 -8.29438e-08
-2.55561e-08 5.86696e-09 -3.01812e-08
-1.30732e-08 4.84233e-09 -5.24761e-08
5.17654e-08 1.90067e-08 -6.88524e-08
2.31943e-08 9.00273e-09 -3.39822e-08
1.40932e-07 2.50165e-07 8.95291e-08
1.01302e-07 3.75548e-07 2.27987e-07
-6.65763e-07 9.33153e-08 2.32093e-07
-2.31361e-05 9.46473e-06 -9.17292e-06
-2.36456e-05 1.02117e-05 -1.07601e-05
-8.82133e-07 7.65485e-07 -2.12633e-07
2.16112e-07 2.06596e-07 -1.68037e-07
3.56431e-07 3.89528e-07 1.06134e-07
1.89538e-07 5.28662e-07 -2.79308e-07
1.78123e-07 2.18852e-07 -1.46725e-07
1.21723e-07 4.51187e-09 7.26628e-08
9.96259e-08 5.32376e-08 1.28065e-07
6.22218e-08 3.18632e-08 8.22527e-08
1.20106e-06 1.60931e-06 -1.105e-07
1.3274e-06 1.8207e-06 -1.13109e-07
-5.1544e-05 1.97239e-05 -2.91314e-05
-1.00901e-07 2.18663e-07 5.42722e-09
3.19915e-08 5.94228e-09 2.04587e-08
-2.91477e-08 6.58183e-08 1.19132e-07
6.3713e-07 1.94915e-06 -2.07051e-07
6.60042e-07 1.34564e-06 -1.67658e-07
-5.74876e-08 9.90131e-08 -1.47668e-09
1.20233e-07 1.90704e-07 3.62909e-09
-1.13749e-07 1.74111e-07 -1.23276e-08
-1.7356e-05 1.42855e-06 -3.32562e-07
4.26312e-09 1.10697e-07 -5.31394e-08
-2.26726e-09 9.41586e-08 -4.64446e-08
-9.2853e-06 -1.71383e-07 -1.8229e-06
8.0029e-07 7.52884e-07 -2.71171e-07
-1.39579e-05 3.47391e-06 3.09632e-06
-1.1444e-08 1.04261e-07 7.75953e-10
1.70063e-06 6.21129e-07 1.51202e-07
1.87292e-06 4.95753e-07 4.81518e-07
2.59064e-09 6.87888e-08 -3.65606e-08
-9.89191e-09 8.06082e-08 2.33721e-08
1.14916e-07 2.07294e-07 -1.25922e-07
1.80523e-08 -1.0388e-08 -1.84328e-08
1.78162e-08 7.20657e-10 -3.77197e-08
4.47594e-07 4.73634e-07 -1.3205e-07
5.60554e-07 3.97666e-07 6.58744e-08
2.75067e-06 2.20302e-06 8.91663e-07
3.35996e-05 3.00191e-05 3.84142e-05
2.57614e-05 2.97706e-05 3.55592e-05
1.67343e-08 8.02211e-10 7.83077e-10
-1.48372e-08 3.23263e-10 -1.67988e-08
2.45636e-05 2.83437e-05 3.17126e-05
3.58965e-07 9.74692e-08 1.53716e-07
1.78885e-07 1.45456e-07 1.12554e-08
-2.26251e-08 5.65018e-08 -2.55382e-09
-1.00031e-07 1.89361e-07 1.70185e-07
-9.12247e-08 2.07738e-07 1.70781e-07
-5.30672e-07 3.35319e-06 2.79518e-07
-9.36736e-08 4.13438e-08 3.79252e-08
-2.66243e-08 1.20208e-07 9.37787e-08
-5.05868e-05 3.55732e-05 -5.71431e-05
-3.72331e-05 3.07224e-05 -4.54072e-05
-6.81635e-07 3.35994e-06 2.93138e-07
1.04979e-06 1.21694e-06 -2.46542e-07
-2.49615e-07 2.83701e-06 3.73219e-07
-2.7299e-09 -3.19994e-09 -2.45627e-08
1.95612e-07 7.43295e-07 -2.189e-07
3.22271e-06 3.66373e-05 -3.56114e-05
3.2972e-07 4.50484e-07 -5.86334e-08
9.36687e-07 6.38011e-07 6.59374e-07
6.09859e-08 1.06921e-07 -5.46384e-08
-3.34465e-08 4.80539e-08 2.93922e-08
8.77592e-09 2.24176e-09 -4.19158e-09
-3.94422e-09 3.31755e-09 -2.10394e-08
-1.64775e-05 2.09713e-05 -2.06003e-05
-3.09413e-08 6.35074e-08 9.77747e-08
1.32286e-06 4.96387e-07 -1.87103e-07
-5.23954e-09 -2.5903e-09 1.74647e-09
6.50052e-08 1.29788e-07 1.41255e-07
2.12637e-08 1.13865e-09 2.20988e-08
1.58956e-05 2.53704e-05 -1.84706e-05
2.64958e-07 8.62483e-08 -1.041e-07
1.40083e-05 2.61692e-05 -2.14219e-05
0.00037937 6.85597e-06 -7.62789e-05
0.000362009 1.06555e-05 -7.80351e-05
1.42412e-08 9.79785e-08 9.31375e-08
0.000129636 5.82927e-05 -0.000159041
1.19812e-08 1.10508e-07 8.94011e-08
-5.46592e-08 7.01252e-08 1.29458e-08
-6.34146e-08 5.11222e-08 -6.28007e-09
4.15186e-08 1.52443e-07 1.27875e-07
1.07171e-06 1.10401e-06 -3.51205e-07
1.43237e-08 9.22652e-10 -1.03367e-08
3.46727e-07 2.73308e-07 -9.81537e-08
3.37934e-05 3.62133e-05 -3.91928e-05
3.49619e-07 1.91714e-07 7.29137e-08
3.53274e-07 1.53502e-07 1.36761e-07
3.61599e-07 1.83575e-07 1.15535e-07
3.24167e-05 3.18226e-05 4.50308e-05
-9.35515e-08 5.02133e-08 -1.86748e-08
-8.20978e-08 4.32067e-08 -4.75026e-08
-1.70493e-07 1.05949e-07 -1.28855e-08
-3.02864e-07 2.60274e-07 -7.05938e-08
3.73328e-05 3.64519e-05 5.04755e-05
7.53089e-06 3.20957e-06 -6.8179e-07
2.4709e-06 4.9665e-06 -2.53294e-06
2.6101e-06 4.6127e-06 -2.17941e-06
0.000243981 1.06201e-05 -3.47478e-05
0.000229991 1.19092e-05 -3.41652e-05