# vtk DataFile Version 2.0
S, Created by Mohamad Ibrahim Cheikh
ASCII
DATASET UNSTRUCTURED_GRID
POINTS 10490 double
-223.577 20.339 -34.7913
-223.73 23.2851 -32.765
-130.491 -29.3086 69.284
-194.384 -37.8827 -41.0228
-207.472 29.5074 40.0418
-235.877 27.398 13.4742
-191.274 -39.7119 -41.0821
14.4066 -3.13421 87.7996
-191.07 39.2217 -41.6655
-193.41 36.9322 -42.4288
-251.147 3.21241 -3.38083
-251.007 5.46246 -0.714927
-204.326 29.2993 -42.1208
18.605 -1.51753 87.7458
-201.229 30.3637 -43.1793
-151.329 68.7402 -14.6658
-148.536 69.9503 -12.2381
241.381 21.7606 -11.7086
240.378 24.3446 -8.78226
39.5698 72.9184 -47.2781
43.4053 72.2098 -47.9487
45.4293 -3.20161 -86.4932
49.2902 -1.5125 -86.2802
-145.563 -45.4946 -55.4989
-142.058 -46.9191 -55.4246
-191.797 -27.3644 49.9144
-189.472 -30.0426 49.4594
-64.3397 -67.8358 51.337
-66.4808 -66.016 53.3364
-121.228 -41.6794 -64.8656
-205.491 44.607 24.174
-208.433 41.8711 25.9214
-64.8758 -22.5911 81.9655
-61.2423 -23.9297 81.9279
44.314 4.18442 86.5221
-201.398 -44.9175 27.5768
-52.2048 82.6149 -24.1891
-49.0705 82.2795 -26.0629
-109.541 -78.4117 -11.2486
-105.515 -79.2425 -10.0783
-195.496 42.6398 35.3085
-200.947 -43.003 30.839
-54.4275 -15.3254 84.5367
3.51757 8.27516 87.6014
226.254 36.0725 -13.2454
223.494 37.2789 -15.4581
-146.995 22.4227 -67.7923
-143.834 23.6846 -68.1922
-167.022 -43.0235 -49.7759
-163.503 -43.4783 -50.8003
-215.266 -7.15812 -44.9375
-215.166 -3.16225 -45.452
-105.634 -17.6167 77.8943
-104.097 -21.1532 77.2649
-247.96 -12.5227 7.72452
-247.222 -12.2243 10.5722
-226.224 -18.8462 33.5138
-129.024 -40.8337 -63.5489
238.447 4.07559 -27.6835
236.191 2.11806 -30.1593
30.6802 -3.73065 -87.2631
26.7083 -1.99638 -87.4796
-224.96 -22.5398 32.2505
-47.6606 -75.8718 41.3445
-235.553 -26.7706 15.3058
-110.223 51.2082 -60.2851
-237.919 -25.2891 13.1989
-16.8423 -1.46503 -87.7902
-20.0196 -4.00877 -87.6291
25.3046 7.53676 -87.2284
27.3636 3.7168 -87.3986
25.4491 1.71973 -87.5314
45.9703 -6.32145 -86.2862
-242.159 -16.9748 16.626
249.587 -5.36896 -9.40942
249.11 -2.30251 -11.8808
-169.141 48.1673 43.8333
30.4586 -13.4796 -86.306
-165.514 47.9384 45.7376
-244.371 -14.443 14.973
243.986 6.92801 20.1943
244.544 3.56442 20.2422
-218.53 -34.2527 26.9082
-142.145 -69.4109 21.2692
-139.63 -70.7397 18.7864
-221.096 -32.0563 27.0481
-157.97 -59.7998 33.3582
-205.037 32.4633 39.2825
-154.319 -61.3636 32.6023
21.3259 7.37911 87.372
-119.065 18.5225 75.2681
-116.396 20.6089 75.2368
25.5779 -59.032 64.6461
29.1126 -57.6608 65.6923
-134.533 55.0568 -49.9685
-136.819 52.5658 -51.8557
-177.091 57.9192 23.4475
-176.692 59.3934 19.8527
-69.8288 65.335 -53.6503
-62.7478 16.936 -83.5172
-66.3645 16.9208 -83.1774
-66.2973 66.8861 -52.2697
124.459 57.7473 50.1279
121.026 58.3536 50.4539
-132.441 -69.847 26.7936
-132.815 -68.001 30.9874
-188.862 35.1211 46.2986
-185.115 37.292 46.4533
-232.726 13.1742 -30.6501
-59.6705 75.3046 40.4634
-60.9856 76.8171 37.253
-231.927 16.7985 -29.6016
-175.271 -46.9573 -42.1659
-178.788 -11.2293 60.8636
-181.798 -8.37532 60.2285
-195.819 53.754 12.6457
-198.372 52.0673 14.6693
-195.137 -6.40362 -55.1457
-196.11 -2.36379 -55.0441
-155.755 25.0574 64.3895
-159.46 22.4878 64.2278
-196.21 -54.5515 -7.39866
-193.182 -56.048 -5.79653
-91.0598 75.2541 -32.6442
-87.0723 75.6423 -33.076
-39.2315 -78.9674 -36.328
-42.7325 -77.6544 -38.6035
-35.7029 20.5928 -84.6397
-119.249 -59.0773 -50.1284
-116.054 -58.3896 -51.8236
-103.565 -58.9112 54.4087
-107.46 -57.2197 55.2822
-176.071 46.9093 -41.8096
26.9036 14.0168 -86.365
23.7835 15.7935 -86.1703
-175.602 44.5878 -44.5047
-89.4444 -39.5898 72.0914
-93.3138 -38.4515 72.1071
-1.7073 -75.0124 -46.0085
2.63174 -75.2487 -45.6156
-158.022 -33.1961 -59.8734
-154.736 -36.6319 -58.9128
25.5774 72.9468 48.4012
28.0734 70.9447 51.1308
-166.575 38.8148 53.2946
-168.987 36.4414 54.0356
126.643 60.2642 46.3533
124.995 62.238 44.245
55.918 20.2589 83.3712
-158.148 12.6481 67.2454
-155.545 9.85743 68.445
-43.8403 73.6161 -45.7094
70.9287 53.0858 -65.6503
-41.1532 75.2871 -43.2261
222.064 -27.8283 -30.5325
225.276 -26.0124 -29.2252
-17.151 79.7659 -36.6795
-19.9221 78.5092 -39.1371
247.477 -7.06407 13.9944
245.671 -9.07239 16.5073
-182.891 19.8562 57.0484
-181.35 22.6993 56.5885
-55.4488 68.7409 51.403
-53.1948 70.6115 49.1078
-221.672 26.3873 -32.1192
245.289 -12.7014 14.7129
-123.336 -44.6595 -62.347
-128.466 -46.9001 -59.362
-126.782 -44.2467 -61.7925
-219.064 -11.053 41.7916
-206.367 49.8798 -6.48097
-208.052 48.5174 -9.51756
-173.562 -35.1388 53.1149
-196.133 -34.8661 -42.6459
-56.8335 10.6482 85.0597
-99.3894 80.6914 4.84722
-149.825 -21.4674 67.3416
-153.215 -21.713 66.3211
-105.536 79.844 2.30768
-103.18 80.0711 5.40576
-208.26 -1.82515 -49.3012
-211.702 -0.42596 -47.5055
6.85724 76.653 -43.1573
8.50352 74.9111 -46.0812
-16.3959 86.0878 -17.3195
-20.1169 85.3846 -20.0978
12.2694 74.3807 -46.8303
-209.318 34.9083 -34.0774
-209.426 37.4832 -31.1336
-243.669 12.2909 -17.9911
-205.993 40.0928 -30.6828
-237.952 16.73 23.0648
-240.124 13.5359 22.3944
-198.67 34.6943 41.3283
-44.09 -51.8594 -69.4018
-47.9352 -52.1775 -68.8491
-64.4376 78.4834 -32.8023
-61.3106 79.4682 -31.1221
-198.903 37.6908 38.4678
-195.378 39.9853 38.3624
193.193 51.8479 -22.051
191.207 51.6125 -24.5775
-17.406 72.7767 -49.0965
-16.0953 71.0403 -51.629
-160.713 -8.67639 67.1305
-158.258 -5.14343 68.1996
-159.179 -12.1844 67.0328
-155.586 -13.9487 67.7183
-181.217 -39.368 -46.6219
-187.068 -34.8941 -47.35
234.201 -8.19812 31.0077
231.367 -8.8396 33.3482
-185.724 -37.8053 -45.7355
-220.423 -36.3319 -21.8074
-223.2 -33.1948 -23.2994
-74.1659 69.6525 47.1072
-199.248 43.3717 -31.661
-202.412 40.5171 -32.9592
-78.9217 71.9879 42.4166
-75.0717 71.8236 43.5359
-199.862 -47.1005 -25.2003
-196.405 -49.1627 -24.5821
-156.238 -38.563 57.1694
-155.215 -34.6046 59.9747
-162.908 56.261 -36.4628
-159.759 58.0894 -35.282
245.94 -16.0778 8.95235
246.756 -13.0533 10.9096
-202.191 25.124 -45.9097
246.469 -16.6405 5.45935
-222.675 -40.7295 -3.81026
-219.564 -42.6765 -4.53612
-225.912 36.4543 -12.9115
-224.086 36.2135 -16.8755
-228.9 -34.8682 10.6499
-231.376 -33.5773 7.89147
-225.472 -37.7616 9.69466
119.57 74.8262 19.8657
-172.164 -51.1023 -38.7774
115.375 75.6414 19.8156
47.9144 12.1678 -85.527
51.5016 10.7714 -85.459
-180.221 -22.175 57.2344
-179.944 52.3225 -32.2813
-165.451 0.847844 66.2711
-168.575 2.82537 65.2446
-181.02 -17.4171 58.5561
36.4522 -59.7544 63.3303
37.7865 -57.2076 65.5475
-159.985 -59.9393 -31.9008
-182.767 -21.7979 -56.3845
-184.312 -18.0303 -57.095
-11.9366 15.0761 -86.5983
-188.59 -54.9978 19.1015
-192.466 -53.1211 19.6702
-145.937 9.33666 -71.0589
-143.737 12.1403 -71.1841
-174.365 52.4225 35.6875
-173.428 50.7195 38.5895
-187.177 39.7187 -43.3247
-231.497 33.4966 -7.79797
-229.092 35.9707 -4.95935
-234.903 30.8717 -5.94133
241.404 7.72094 23.4445
239.892 10.8369 24.1019
240.609 13.4019 21.8298
-138.879 -61.8301 -39.4929
-138.123 -60.1626 -42.2935
-141.495 -58.2502 -43.586
-200.351 -41.1643 -33.6911
-218.716 20.1159 -38.5059
-52.6775 9.05219 85.5706
-56.6796 -81.183 27.5682
-60.1941 -81.4607 25.7788
-152.605 56.1704 41.6855
-153.377 58.0574 38.642
-189.413 -9.89758 -57.0401
-186.065 -8.87943 -58.537
64.9125 -8.70808 84.5712
67.8937 -7.07303 84.4371
-196.835 -37.2194 40.1905
-200.415 -34.6097 40.3562
-180.668 -48.2455 -37.6846
-174.532 -52.0916 -36.0704
-215.618 -38.5089 23.8561
-218.655 -36.4149 23.7604
-178.254 -50.9817 -35.4217
-121.551 47.9483 -60.3001
-71.2379 59.6463 59.7077
26.8711 -68.3003 54.687
24.8082 -66.5874 56.875
-87.1929 -8.58773 -82.0942
-84.013 -6.28052 -82.7068
-31.549 85.9067 -15.5622
-35.2579 85.4312 -17.1263
-75.0484 60.1476 58.6235
-117.616 48.9856 -60.4216
67.09 -10.9659 -84.0992
63.3407 -11.5723 -84.3735
-122.318 44.7417 -62.5334
-76.0924 64.1524 -54.0332
-79.6181 64.3217 -53.2037
-210.937 -46.4386 -11.8319
-207.911 -47.2774 -14.7161
-70.3839 -66.9053 51.5866
-82.3746 61.8223 -55.599
181.004 57.5729 -20.4508
187.792 54.7428 -20.7268
-57.9878 -57.7681 -63.2073
-60.2492 -59.9489 -60.8745
185.029 56.5061 -18.9618
-52.2143 4.93951 85.9408
170.803 -60.94 -21.4146
166.657 -61.8363 -22.7991
-242.161 -11.2306 20.9366
-241.443 -7.71437 23.3971
231.623 25.861 -22.5153
229.371 25.1803 -25.8603
225.985 27.6876 -26.9257
-235.384 -18.9693 -24.5116
-234.85 -16.6286 -26.738
-226.066 27.1638 -27.3715
-222.95 28.462 -29.1256
-220.767 31.3768 -28.1506
-250.634 -7.29468 -0.178498
-176.045 45.308 43.5525
58.6597 51.2714 -68.5125
59.7441 48.4428 -70.4293
128.105 68.3808 32.5403
131.598 68.3046 30.9553
-176.931 47.6172 40.5462
-181.033 46.755 39.3137
18.7049 -86.4179 15.2678
142.033 69.3643 -21.5123
141.093 68.3965 -25.0731
23.2385 -86.1703 15.8921
181.098 -44.0245 42.315
25.6368 -86.6619 12.3796
-189.026 21.6449 -53.8607
-189.446 17.8988 -55.042
-212.326 -45.0145 14.0794
-120.848 -47.003 -61.2104
-24.3207 -37.2727 79.2611
52.3139 18.5395 -84.0549
55.8279 16.7522 -84.1533
-25.291 -41.1218 77.2961
-119.137 -6.53311 -77.2242
-115.757 -7.74892 -77.7394
-200.049 16.4743 50.7247
-215.148 -43.2642 14.3202
-153.426 33.0488 61.3989
-156.85 31.364 61.2232
-157.696 28.2147 62.4765
-79.9676 -83.4309 0.60293
-63.0899 72.975 -43.9469
-62.4067 70.926 -47.2936
-79.8045 -83.3553 -4.02109
-209.642 -18.6815 44.8801
-59.826 71.551 46.7574
-205.671 -19.674 46.6696
-191.283 -46.3884 33.3537
-190.154 -45.0077 35.9364
-195.131 47.3253 29.0283
-192.216 -42.6381 37.4505
-97.6801 19.8294 78.6297
-94.0859 21.0046 78.8608
-195.846 -41.8723 35.9835
-247.68 -8.81192 12.4833
188.065 -42.0217 40.5957
184.93 -44.2656 39.9694
-127.16 75.5103 7.90657
-123.525 76.0436 9.65867
48.862 1.69668 86.3065
130.446 15.5941 -73.6039
-179.701 46.5262 -40.3202
198.595 13.1805 52.3604
200.49 9.43399 52.2853
113.345 74.898 23.6943
109.603 75.351 24.4028
149.558 63.7439 -30.6957
145.728 65.3549 -29.5417
-166.875 -45.6697 -47.4229
129.842 19.3579 -72.8369
-209.802 43.7078 -21.086
-206.942 46.1311 -19.3094
126.467 20.2102 -73.3307
-61.8895 -0.312126 85.2934
-59.1766 2.60853 85.4895
-53.8428 -1.9759 85.937
[...]
POINT_DATA 10490
VECTORS F double
1.27895e-08 3.03993e-08 7.70761e-09
1.29633e-07 9.08899e-08 -4.37807e-08
1.3607e-07 7.02745e-07 3.28651e-07
5.82415e-08 -7.29691e-09 -2.70494e-08
2.88271e-07 2.62323e-07 -1.04426e-08
1.84268e-07 1.97777e-07 -7.22076e-09
8.51203e-08 2.66542e-08 -7.42859e-08
-1.86658e-06 2.20418e-06 1.16179e-07
9.74002e-07 7.44369e-07 1.53861e-07
1.06935e-06 6.40969e-07 -3.88709e-08
1.24984e-08 7.49913e-08 -4.24286e-08
1.09807e-08 5.90313e-08 -2.10393e-08
9.85575e-08 3.63674e-07 1.94437e-07
-2.31129e-06 3.77875e-06 1.25349e-07
1.41138e-07 1.15542e-07 7.19913e-10
3.3602e-06 6.31408e-07 -1.28547e-06
4.35343e-06 7.53862e-07 -2.16016e-06
-1.18307e-08 2.22497e-08 1.14909e-08
-1.38571e-08 2.15961e-08 1.34289e-08
-2.82012e-05 5.59024e-06 5.7321e-06
-2.74019e-05 4.69459e-06 4.03284e-06
-3.23415e-06 1.85966e-06 -2.76808e-07
-2.94228e-06 1.35648e-06 -2.2957e-07
3.09808e-08 2.2221e-07 -1.92103e-07
5.75298e-08 2.49027e-07 -2.28864e-07
1.42918e-08 1.66957e-07 9.82531e-08
-9.99017e-10 1.4254e-07 8.61132e-08
-4.43804e-08 1.85451e-07 2.38241e-07
-1.85852e-07 1.42892e-07 1.48501e-07
2.52639e-07 2.13504e-07 -1.94994e-07
5.76467e-07 2.62827e-07 1.14964e-07
3.7998e-07 2.88976e-07 -9.27093e-08
1.15918e-07 2.95514e-06 8.25718e-07
-3.16065e-07 1.538e-06 4.20298e-07
-1.97733e-06 2.99371e-06 -2.07955e-08
1.38343e-08 2.86941e-08 5.91078e-08
9.84585e-05 1.95656e-05 4.08071e-05
0.000107789 2.31766e-05 4.83204e-05
3.94128e-08 6.38781e-10 -5.14395e-08
3.38296e-08 -2.57146e-09 -2.31431e-08
6.48189e-07 3.57186e-07 8.04077e-09
2.63e-08 2.92889e-08 6.18221e-08
3.23195e-07 2.76666e-06 5.27035e-07
-1.47436e-06 3.53888e-06 -3.27049e-07
-2.35523e-08 1.41544e-08 -1.07076e-08
-3.97508e-08 3.58758e-08 1.61576e-08
1.304e-06 8.87752e-07 -5.25433e-08
1.10515e-06 1.75901e-06 3.25552e-07
-5.32482e-08 1.05164e-07 -6.90236e-08
-4.65076e-08 1.18361e-07 -8.29754e-08
5.4145e-08 1.49688e-07 -5.56002e-08
7.13745e-08 1.58761e-07 -5.24135e-08
9.6633e-07 2.3722e-06 6.96939e-07
1.02342e-06 2.29097e-06 7.9602e-07
-4.09429e-08 9.96068e-08 5.72136e-10
-2.87983e-08 7.50258e-08 4.30558e-09
5.85788e-08 9.79651e-08 1.03502e-07
1.785e-07 3.45146e-08 -6.65477e-08
-1.90844e-08 1.27966e-08 -1.82415e-08
-1.81131e-08 7.93574e-09 -1.68095e-08
-2.53435e-06 3.01592e-06 -2.38026e-07
-2.30817e-06 3.93575e-06 -1.76096e-07
1.2345e-08 8.77279e-08 7.18561e-08
-3.8255e-08 5.37655e-08 9.32668e-08
-1.15201e-08 1.2618e-08 3.65527e-10
1.35999e-05 6.3497e-06 2.34934e-06
-2.14425e-08 3.73396e-08 2.4224e-08
-4.83476e-07 4.91529e-06 -7.06699e-08
1.60876e-07 3.80121e-06 -1.78394e-07
-6.51713e-07 7.04454e-06 5.8552e-07
-3.42616e-06 5.41957e-06 9.9147e-08
-2.25509e-06 4.10312e-06 3.41804e-10
-1.24122e-06 2.14951e-06 -2.38437e-07
5.30207e-09 4.54825e-08 5.5892e-08
2.61054e-09 1.32117e-08 9.45788e-10
-3.48876e-09 4.80477e-09 -9.88253e-09
3.20211e-07 3.93697e-07 -2.81347e-07
9.85096e-07 1.57808e-06 -2.03907e-07
4.70298e-07 5.69014e-07 -3.88026e-07
7.83022e-10 2.93404e-08 2.98695e-08
-9.84071e-09 1.094e-08 1.08015e-08
-2.84643e-09 1.12291e-08 2.23057e-09
1.92259e-08 1.59247e-08 3.93872e-08
2.58286e-08 5.95363e-09 4.05644e-08
1.32033e-08 3.27788e-09 2.43602e-08
1.57527e-08 1.84711e-08 3.76566e-08
3.78222e-08 3.32893e-08 8.16045e-08
2.35737e-07 3.04932e-07 -1.01353e-07
3.9211e-08 2.83823e-08 7.61433e-08
-8.55756e-08 4.67676e-06 -3.92426e-07
2.20707e-06 2.83271e-06 -2.69653e-07
2.02552e-06 3.31728e-06 -5.25024e-07
-2.45658e-08 1.86011e-07 1.71047e-07
-6.55866e-08 2.74301e-07 2.44323e-07
5.11506e-06 3.25229e-06 1.89741e-06
6.49168e-06 2.63419e-06 5.73263e-07
4.22021e-07 3.4514e-07 -4.62314e-07
1.32661e-06 5.99705e-07 -3.48591e-07
2.9097e-05 2.08099e-05 2.07056e-05
2.2489e-06 1.51767e-06 1.00898e-07
1.99757e-06 2.20036e-07 -1.50369e-07
2.79979e-05 2.34366e-05 2.56426e-05
-1.01272e-06 3.62603e-07 -1.09875e-07
-1.07437e-06 3.91749e-07 -1.37562e-07
3.21622e-09 1.27806e-08 3.52651e-08
-9.47864e-10 1.77955e-08 3.8555e-08
1.03211e-06 5.53317e-07 9.57264e-08
1.01244e-06 6.97661e-07 -6.61221e-08
6.18815e-08 8.57578e-08 -2.06662e-08
4.80481e-05 2.4778e-05 -3.74381e-05
4.86454e-05 2.4542e-05 -4.08564e-05
3.53666e-08 8.83915e-08 1.62355e-08
4.47002e-08 -2.27588e-08 2.59635e-09
4.4359e-07 3.81507e-07 2.29921e-07
2.20194e-07 1.41713e-07 1.0108e-07
6.8718e-07 3.74249e-07 -2.88064e-07
8.2781e-07 3.94789e-07 -3.07274e-08
-7.04432e-09 1.19766e-07 -1.08566e-08
1.28367e-07 1.66025e-07 -6.31228e-08
3.78746e-07 2.47643e-06 -8.51545e-07
1.29376e-06 9.55441e-07 5.87277e-08
7.82876e-09 -1.78042e-09 -1.22887e-08
-1.5532e-09 -4.99152e-10 1.11602e-08
2.76995e-05 7.84557e-06 8.62631e-06
2.91074e-05 9.55303e-06 1.24657e-05
-4.4133e-08 5.02455e-08 -1.03385e-07
-3.03064e-08 6.4771e-08 -1.26186e-07
1.61501e-06 1.08229e-05 2.5498e-06
1.27567e-07 1.5852e-07 -2.23973e-07
1.2428e-07 1.84499e-07 -2.41949e-07
3.82155e-08 1.45316e-07 1.66247e-07
8.44439e-08 2.34885e-07 2.63214e-07
2.55095e-06 7.68751e-07 -4.52722e-07
-2.58856e-07 6.55523e-06 1.05402e-06
-2.28661e-06 3.50096e-06 5.64395e-07
7.03499e-07 6.19549e-08 -2.77775e-07
2.34371e-07 5.67192e-07 3.4708e-07
2.95297e-07 8.8716e-07 5.19868e-07
-6.29316e-08 8.18254e-08 -1.33122e-07
-6.18075e-08 5.90681e-08 -9.78769e-08
1.25117e-07 2.40209e-07 -1.73609e-07
2.62088e-08 1.51915e-07 -1.02888e-07
-4.73476e-05 1.85165e-05 -2.48433e-05
-4.13754e-05 2.04733e-05 -2.56256e-05
2.72615e-06 1.22118e-06 1.53801e-07
2.36233e-06 1.41094e-06 -4.70417e-08
-5.34278e-07 1.60036e-07 -2.93462e-08
-1.42117e-06 2.55066e-08 4.5567e-07
-8.89094e-07 7.18814e-07 -1.01662e-07
9.50254e-07 1.05011e-06 7.60942e-08
2.31582e-07 2.73397e-07 2.50577e-08
4.48315e-05 3.98335e-05 5.88881e-05
-5.85823e-06 2.96446e-06 1.6222e-06
4.89451e-05 3.84414e-05 6.12481e-05
-2.43431e-09 8.03371e-09 -9.48853e-09
-1.57597e-09 6.32608e-09 -7.11629e-09
8.87501e-05 4.98917e-05 0.000103417
7.98696e-05 5.31909e-05 0.000101723
-6.55121e-10 -3.28603e-10 1.25245e-09
-1.18376e-09 8.31946e-10 2.61251e-09
3.76367e-07 5.56745e-07 -4.60561e-08
3.12942e-07 6.15902e-07 -1.24271e-07
4.0099e-05 3.20633e-05 -3.75822e-05
4.024e-05 3.22941e-05 -4.10986e-05
2.03924e-07 7.84848e-08 -1.07831e-07
-3.9351e-09 -1.53392e-09 6.70931e-09
2.44619e-07 1.94743e-07 -1.98741e-07
8.88811e-09 1.3075e-07 -1.05657e-07
2.27245e-07 3.6157e-08 -8.29736e-08
-1.24344e-09 1.34769e-07 3.48461e-08
5.71519e-07 3.04771e-07 1.17578e-07
6.12586e-07 3.30355e-07 4.45651e-08
9.39606e-08 1.37919e-07 1.28832e-07
9.19702e-08 4.50427e-09 -5.54682e-08
1.94489e-06 3.85468e-06 -3.23451e-07
3.40595e-05 5.23298e-06 -1.61031e-06
-4.20906e-08 2.70822e-07 7.4869e-08
-7.51586e-08 3.71961e-07 1.00519e-07
2.98147e-05 5.02339e-06 -6.86956e-06
3.18669e-05 5.50284e-06 -7.04089e-06
4.84149e-08 9.46772e-08 -2.85437e-08
6.82495e-08 1.91678e-07 -3.89557e-08
-2.01278e-05 3.16558e-05 5.5833e-05
-3.49704e-05 2.83575e-05 4.53086e-05
0.000262885 1.55715e-05 4.69261e-05
0.000230572 2.04065e-05 5.84369e-05
-3.53871e-05 2.18497e-05 3.35687e-05
3.03456e-07 2.27146e-07 4.47748e-09
8.92931e-07 4.84505e-07 -1.52061e-07
1.07287e-07 1.83583e-07 -5.24843e-08
8.01868e-07 6.15437e-07 1.45082e-07
6.94442e-08 2.08076e-07 -6.32129e-08
8.24642e-08 1.75195e-07 2.36358e-09
4.20727e-07 -1.90264e-07 4.07337e-07
4.33733e-07 3.15852e-07 -2.69751e-07
3.99214e-07 4.01903e-07 -3.38613e-07
6.30899e-05 2.20335e-05 3.7544e-05
6.74181e-05 2.0812e-05 3.68811e-05
7.03714e-07 -4.47362e-08 4.89314e-07
5.15437e-07 2.97164e-07 1.16578e-08
-7.98591e-08 3.80264e-08 3.751e-09
-1.11719e-07 6.0957e-08 2.15982e-08
1.20283e-05 4.66541e-05 6.86341e-05
-3.86881e-06 4.26738e-05 5.88656e-05
7.34251e-07 4.22266e-07 2.69787e-07
9.00195e-07 3.50815e-07 2.82204e-07
1.87516e-07 1.5724e-07 8.30972e-08
3.04532e-07 3.72353e-07 1.62359e-07
1.02778e-07 1.00317e-07 -1.33619e-07
1.16746e-07 7.82194e-08 -1.14112e-07
1.52766e-09 1.02752e-08 1.30411e-09
1.11455e-09 1.01096e-08 1.73266e-09
8.87561e-08 6.43733e-08 -9.7338e-08
3.53543e-09 3.07274e-09 -9.4948e-09
-1.26618e-09 5.23543e-09 -5.97493e-09
3.47406e-05 1.50765e-05 -1.55956e-05
8.02707e-07 6.47059e-07 2.67923e-07
8.38953e-07 6.08604e-07 1.17366e-07
2.94835e-05 1.04242e-05 -1.09752e-05
3.3298e-05 1.48687e-05 -1.75e-05
4.09699e-09 1.42361e-08 -3.05855e-08
2.77116e-10 7.71159e-09 -1.56936e-08
6.55135e-08 2.63305e-07 1.9953e-07
1.97564e-07 2.44503e-07 2.03672e-07
1.55158e-06 1.12003e-06 8.79471e-07
1.93237e-06 1.0192e-06 6.06782e-07
2.00515e-09 7.07722e-09 5.96281e-09
7.11966e-10 7.57972e-09 7.09228e-09
3.34159e-07 2.35327e-07 -5.13953e-08
6.77861e-10 3.10667e-09 5.71699e-09
-2.85287e-08 2.00952e-08 -1.06758e-08
-2.16929e-08 1.00794e-08 3.37223e-08
3.16616e-07 2.41368e-07 3.22917e-09
4.10446e-07 3.18816e-07 1.68766e-08
1.22514e-08 -1.7085e-09 2.66489e-08
-2.50538e-09 1.17051e-08 4.08109e-08
1.68968e-09 -5.42463e-09 -1.63177e-08
-2.11005e-06 2.39818e-07 6.51642e-07
5.20387e-08 -1.9951e-08 -1.99442e-09
-2.17736e-06 3.05803e-07 3.84853e-07
6.73154e-07 1.44226e-06 2.51358e-07
5.90827e-07 9.55967e-07 1.64083e-07
1.09502e-07 3.17916e-07 1.65388e-07
1.61668e-06 5.33824e-07 -2.38085e-07
4.595e-07 2.06177e-07 1.37812e-07
4.71361e-07 2.89229e-07 1.36579e-07
1.50236e-07 3.43891e-07 1.5915e-07
-3.66978e-08 1.81343e-07 1.7369e-07
-1.67813e-08 1.91858e-07 1.68631e-07
4.22244e-08 1.18286e-08 -4.81497e-08
7.00126e-08 6.49437e-08 -5.28916e-08
2.2766e-07 1.24888e-07 -1.29416e-07
1.03734e-06 9.29551e-06 1.60077e-06
6.6438e-09 9.58963e-09 3.56426e-08
1.69821e-09 8.3532e-09 2.45928e-08
1.10763e-06 7.60365e-07 -1.78597e-07
7.89913e-07 1.12305e-06 -3.74672e-09
1.84974e-06 1.18836e-06 -6.39129e-07
1.30148e-06 9.23621e-07 -4.97836e-07
1.09638e-06 1.06851e-06 3.99653e-07
3.64073e-07 3.0675e-07 -5.5985e-09
3.35867e-07 2.723e-07 7.55013e-08
2.87183e-07 2.26024e-07 -2.15695e-07
-1.16658e-08 1.97701e-08 8.19625e-09
-7.95667e-09 2.47078e-08 -1.41357e-09
-8.42037e-09 2.42923e-08 -3.55045e-09
7.34317e-08 2.93294e-08 -7.75324e-08
1.32566e-08 5.61076e-08 -8.51131e-08
7.42986e-08 1.14243e-07 -1.82209e-07
-1.14096e-08 6.68622e-08 -7.33874e-08
1.33385e-07 2.07738e-07 1.57659e-08
3.04977e-06 5.95224e-06 -3.99812e-07
2.40526e-08 1.87805e-08 6.13607e-08
1.74638e-08 1.82389e-08 6.26258e-08
9.62148e-07 1.59093e-07 2.16867e-07
3.56344e-06 1.18534e-06 -4.92457e-08
1.43374e-07 2.53879e-07 -1.02343e-07
1.93108e-07 1.48018e-07 -9.76026e-08
2.00073e-07 5.38946e-07 3.66917e-08
2.06694e-08 9.68264e-07 7.90728e-08
1.98455e-08 7.22274e-08 7.87876e-08
1.45481e-08 7.35067e-08 7.1886e-08
2.12154e-08 2.39889e-08 -4.31634e-08
1.86319e-08 4.4441e-09 -1.7455e-08
1.51993e-08 3.43726e-09 2.23688e-08
1.73739e-08 1.23929e-08 3.85687e-08
1.49654e-08 1.82038e-08 -3.54216e-08
8.26212e-06 4.23406e-06 1.32773e-06
2.63233e-05 2.03204e-05 -1.64544e-05
-4.48551e-09 2.08589e-07 2.60783e-07
-1.1043e-07 1.68981e-07 2.03734e-07
8.34784e-07 1.64153e-06 -2.80269e-07
7.43143e-07 1.93426e-06 -2.39303e-07
0.000185536 1.61404e-05 4.30452e-05
0.000168093 1.88581e-05 5.17001e-05
2.43449e-05 1.80026e-05 -1.46549e-05
8.1857e-06 6.0671e-06 2.96793e-06
-8.53642e-07 7.09377e-07 -1.75872e-07
-8.78931e-07 5.7926e-07 -1.60232e-07
5.31903e-06 4.19892e-06 1.73046e-06
2.63278e-05 1.94052e-05 1.85e-05
2.37257e-05 1.53863e-05 1.42546e-05
1.12125e-09 -5.8574e-09 2.05402e-08
-2.12348e-08 1.57964e-08 -1.40194e-08
-1.34743e-07 6.24212e-08 5.84496e-08
2.24168e-05 1.54055e-05 1.30636e-05
-2.10799e-07 6.27585e-08 -5.17453e-08
-1.66323e-07 7.90145e-08 2.41928e-08
-4.58127e-07 2.8001e-07 -2.04457e-07
-2.83025e-07 1.58566e-07 -1.2186e-07
-2.06815e-07 7.9453e-08 -1.03089e-08
9.69053e-07 5.45376e-06 -2.41381e-07
9.35614e-09 5.40475e-09 -6.24372e-09
9.7046e-09 7.16617e-09 -1.0749e-08
-1.45164e-08 3.33675e-08 -2.6577e-09
6.90505e-09 2.35752e-08 1.6497e-08
-5.66018e-09 1.44456e-08 9.46465e-09
-1.57556e-08 2.89669e-08 1.10975e-08
-1.93936e-08 2.52751e-08 6.06284e-09
-3.2467e-08 5.68732e-08 -5.8443e-09
4.52176e-08 3.30171e-09 -5.06796e-08
2.79172e-07 3.27185e-07 4.24099e-08
2.82882e-07 1.58482e-07 -1.10241e-07
2.05927e-07 1.95212e-07 1.98634e-08
-2.32276e-08 9.80407e-08 -1.39927e-08
9.71489e-07 4.83547e-07 -2.22644e-08
-3.7547e-06 3.4455e-06 2.18485e-06
-2.52273e-06 3.54246e-06 2.17457e-06
-1.062e-06 6.60834e-08 3.73008e-07
-9.14402e-07 -5.41304e-08 5.95376e-07
1.55466e-06 7.63529e-07 -6.61079e-08
1.41634e-06 2.5935e-07 4.90057e-07
-1.43169e-08 9.16105e-09 5.40032e-08
-5.30607e-07 -2.47659e-08 -5.08774e-07
-9.30772e-07 6.5693e-08 -4.62065e-07
-4.46302e-09 5.23702e-10 3.64159e-09
-1.08443e-08 6.56585e-09 1.25127e-08
-1.07169e-08 -8.13562e-10 -2.97915e-09
1.76818e-07 5.18624e-07 1.32444e-07
1.32975e-07 5.05148e-07 1.08232e-07
-2.73317e-08 2.21693e-08 2.04152e-08
3.49251e-07 2.45586e-07 -2.73003e-07
-6.37955e-08 2.50701e-07 1.15495e-07
-1.52686e-06 2.10568e-06 3.48091e-07
-1.45205e-06 2.02157e-06 2.84492e-07
-1.52469e-07 2.2811e-07 1.15247e-07
-1.04949e-07 1.08295e-06 -7.1794e-08
-4.4384e-08 1.13986e-06 -1.05529e-07
3.1731e-07 6.01133e-07 -4.20244e-08
-2.63e-08 2.68191e-08 3.26499e-08
1.59428e-06 2.78107e-06 -1.0092e-06
1.86828e-06 1.91817e-06 -3.96654e-07
-1.94993e-07 2.12632e-06 -1.02051e-06
-3.22181e-08 3.7012e-09 -1.10359e-08
3.8245e-05 2.73449e-05 3.86847e-05
2.94575e-05 2.64651e-05 3.49304e-05
6.96546e-09 -1.61269e-10 -1.35916e-08
2.25814e-09 7.83675e-08 3.39126e-08
4.37752e-05 2.63949e-05 -3.35336e-05
1.42723e-08 1.33604e-07 6.40231e-08
2.38359e-08 2.7708e-08 5.52724e-08
3.99424e-08 2.35953e-08 5.54278e-08
3.64159e-07 3.81989e-07 -3.23062e-07
2.58121e-08 2.39102e-08 4.34423e-08
2.69204e-06 6.47837e-06 -1.22432e-06
3.89011e-06 3.61549e-06 -3.94774e-07
1.25297e-08 6.64276e-08 8.56488e-08
-1.31607e-08 7.38788e-08 2.01864e-08
-2.46375e-08 1.34687e-08 2.79161e-08
-1.27742e-08 4.97024e-10 7.78664e-09
7.36131e-06 1.56889e-06 -4.88594e-07
9.36183e-06 2.33207e-06 -3.70209e-06
-2.43609e-06 1.95155e-06 1.30486e-07
-1.62732e-07 3.9977e-07 4.93877e-08
2.54752e-06 1.00655e-06 -2.28599e-07
-5.86613e-08 8.00325e-08 7.0937e-09
-2.43191e-08 9.32883e-08 -5.41523e-09
-1.75947e-06 1.1011e-07 6.82444e-07
-2.03552e-06 5.4087e-07 -5.50751e-07
-9.90789e-07 2.41307e-07 -8.99194e-08
-1.16134e-06 1.43122e-07 -3.8477e-07
-7.51562e-08 1.00533e-07 -6.4438e-08
-4.35164e-07 3.88199e-07 8.19633e-09
5.03412e-07 1.66797e-07 -2.67498e-07
5.02324e-07 1.85788e-07 -2.15251e-07
-4.56514e-07 3.99862e-07 1.38118e-08
6.60476e-07 4.95554e-06 7.68075e-08
1.80048e-06 4.17947e-06 2.50561e-08
1.20343e-06 3.60182e-06 1.75124e-07
1.31101e-08 1.54333e-08 5.50186e-08
7.92255e-06 1.70084e-06 3.48326e-07
8.85745e-06 1.90161e-06 -1.31719e-06
-1.51059e-06 6.34952e-06 -1.1059e-06
1.25723e-08 -2.07657e-09 1.49124e-08
1.97942e-06 4.11176e-06 6.97258e-08
3.20848e-06 8.97821e-06 4.86941e-06
4.91404e-06 5.96446e-06 2.57846e-06
9.97628e-06 8.71854e-06 4.10606e-06
1.02364e-07 4.09766e-07 6.74528e-08
6.65838e-08 5.37186e-07 4.76807e-08
-2.89543e-07 1.47859e-06 1.67487e-07
-4.52619e-08 8.05365e-07 9.38592e-08
6.88602e-07 2.9981e-07 1.53789e-07
3.40115e-07 5.28694e-07 1.02295e-07
1.9424e-06 6.55694e-07 -3.24078e-08
2.63556e-06 1.11778e-06 4.34135e-07
-3.55761e-08 8.28619e-10 2.73161e-08
-3.03215e-08 -2.50751e-09 1.37295e-08
7.4876e-08 1.92376e-08 -8.2644e-08
5.87718e-08 8.91657e-09 -5.02408e-08
-2.14123e-08 6.92503e-08 1.04187e-07
1.38547e-08 5.6837e-08 1.1112e-07
-1.58576e-08 5.86576e-08 9.74173e-08
2.66372e-07 1.01278e-07 2.04706e-07
4.02151e-07 2.47248e-07 -7.11057e-08
5.72297e-07 2.69707e-07 1.43161e-07
2.32816e-08 7.65937e-08 -8.32423e-08
1.26263e-08 7.81005e-08 -7.95092e-08
-4.93694e-08 5.84277e-07 -3.37022e-07
2.66161e-08 3.36628e-07 -1.98987e-07
-3.21833e-07 3.03946e-06 -5.54677e-07
-9.35276e-07 2.15206e-06 -3.9668e-07
-1.49882e-08 6.45044e-08 -5.69479e-08
2.07632e-07 -1.06232e-08 -3.93904e-08
-2.00561e-08 5.50654e-09 1.17463e-08
1.33113e-08 3.40169e-08 -5.22691e-08
-1.6027e-06 3.82553e-06 -1.66117e-07
-8.01661e-08 3.66744e-07 -2.72326e-07
-1.42433e-07 3.17014e-07 -2.23485e-07
2.10734e-05 3.23468e-05 3.1728e-05
1.70024e-06 8.8779e-07 1.31932e-06
8.9928e-05 7.96813e-06 5.10573e-06
0.000101792 8.45185e-06 -8.3604e-06
8.06247e-05 8.70697e-06 -1.8491e-05
9.75196e-05 8.30277e-06 -4.42539e-06
1.85346e-06 8.63668e-07 1.30975e-06
2.02952e-05 2.60013e-05 2.46616e-05
1.95547e-05 2.57492e-05 2.24136e-05
4.59634e-08 2.98771e-08 -8.26761e-08
-2.55205e-08 5.84278e-09 -2.99351e-08
-1.30093e-08 4.82276e-09 -5.22968e-08
5.16493e-08 1.89015e-08 -6.86091e-08
2.31452e-08 8.9262e-09 -3.38197e-08
1.40334e-07 2.49095e-07 8.91437e-08
1.01066e-07 3.73543e-07 2.26581e-07
-6.60048e-07 9.12428e-08 2.33036e-07
-2.29481e-05 9.24647e-06 -8.92932e-06
-2.35564e-05 9.84196e-06 -1.02996e-05
-8.78412e-07 7.66552e-07 -2.12912e-07
2.15316e-07 2.0584e-07 -1.6742e-07
3.5656e-07 3.88536e-07 1.06309e-07
1.88957e-07 5.26384e-07 -2.78173e-07
1.77588e-07 2.18085e-07 -1.46237e-07
1.22129e-07 4.5123e-09 7.28827e-08
9.9967e-08 5.33701e-08 1.28431e-07
6.24809e-08 3.19502e-08 8.25237e-08
1.19574e-06 1.6026e-06 -1.09974e-07
1.32207e-06 1.8132e-06 -1.12615e-07
-5.11453e-05 1.94112e-05 -2.86723e-05
-1.00916e-07 2.19327e-07 5.53847e-09
3.2203e-08 5.99341e-09 2.0615e-08
-2.91728e-08 6.6107e-08 1.19689e-07
6.34171e-07 1.93969e-06 -2.06014e-07
6.57728e-07 1.34436e-06 -1.67309e-07
-5.73915e-08 9.93214e-08 -1.3845e-09
1.19742e-07 1.90019e-07 3.72452e-09
-1.13831e-07 1.74845e-07 -1.22461e-08
-1.70734e-05 1.13916e-06 -7.45528e-07
4.44971e-09 1.11162e-07 -5.33241e-08
-2.05914e-09 9.45082e-08 -4.65697e-08
-9.25811e-06 -3.04029e-07 -2.02862e-06
7.97779e-07 7.48979e-07 -2.68843e-07
-1.3717e-05 3.17831e-06 2.69019e-06
-1.14147e-08 1.03984e-07 9.15547e-10
1.68977e-06 6.18114e-07 1.48795e-07
1.86239e-06 4.9273e-07 4.79108e-07
2.57354e-09 6.85682e-08 -3.63507e-08
-9.81543e-09 8.04437e-08 2.34276e-08
1.14638e-07 2.06634e-07 -1.25344e-07
1.80322e-08 -1.04128e-08 -1.83226e-08
1.77934e-08 6.75517e-10 -3.75748e-08
4.46561e-07 4.71729e-07 -1.30955e-07
5.58951e-07 3.96112e-07 6.60429e-08
2.73404e-06 2.18581e-06 8.8287e-07
3.33261e-05 2.94755e-05 3.77195e-05
2.55694e-05 2.92362e-05 3.49252e-05
1.68223e-08 8.02199e-10 9.85422e-10
-1.48774e-08 3.11945e-10 -1.66688e-08
2.45483e-05 2.79441e-05 3.12575e-05
3.58337e-07 9.70864e-08 1.53565e-07
1.78851e-07 1.44921e-07 1.1583e-08
-2.25228e-08 5.63839e-08 -2.45254e-09
-1.00455e-07 1.90677e-07 1.7136e-07
-9.13935e-08 2.09204e-07 1.71974e-07
-5.23643e-07 3.36388e-06 2.80884e-07
-9.4363e-08 4.16395e-08 3.82016e-08
-2.64819e-08 1.20412e-07 9.40127e-08
-4.86747e-05 3.48924e-05 -5.61901e-05
-3.57516e-05 3.02988e-05 -4.4874e-05
-6.74963e-07 3.36887e-06 2.94419e-07
1.05105e-06 1.21294e-06 -2.44503e-07
-2.45485e-07 2.84729e-06 3.7487e-07
-2.72514e-09 -3.27498e-09 -2.43675e-08
2.08706e-07 7.44591e-07 -2.16029e-07
3.50638e-06 3.64861e-05 -3.54898e-05
3.36673e-07 4.58503e-07 -5.93981e-08
9.31872e-07 6.34144e-07 6.54307e-07
6.07415e-08 1.06551e-07 -5.43644e-08
-3.33511e-08 4.79426e-08 2.94617e-08
8.84048e-09 2.24889e-09 -4.16703e-09
-3.95042e-09 3.33033e-09 -2.11112e-08
-1.66626e-05 2.07669e-05 -2.04014e-05
-3.0853e-08 6.33621e-08 9.76972e-08
1.31444e-06 4.93816e-07 -1.83971e-07
-5.27649e-09 -2.60663e-09 1.78158e-09
6.5351e-08 1.30034e-07 1.41605e-07
2.13651e-08 1.10809e-09 2.21528e-08
1.56991e-05 2.52767e-05 -1.84282e-05
2.63928e-07 8.62503e-08 -1.03874e-07
1.40451e-05 2.60332e-05 -2.13194e-05
0.000366688 6.23895e-06 -7.22275e-05
0.000348939 9.92136e-06 -7.43715e-05
1.43857e-08 9.80303e-08 9.32628e-08
0.000133636 5.52679e-05 -0.000151477
1.2146e-08 1.10559e-07 8.95261e-08
-5.47036e-08 7.07214e-08 1.32737e-08
-6.36462e-08 5.1517e-08 -6.19154e-09
4.16847e-08 1.52494e-07 1.27997e-07
1.06563e-06 1.09794e-06 -3.49212e-07
1.43203e-08 8.5784e-10 -1.02314e-08
3.45784e-07 2.72114e-07 -9.709e-08
3.38821e-05 3.59188e-05 -3.88868e-05
3.48608e-07 1.90961e-07 7.30413e-08
3.52294e-07 1.52933e-07 1.36553e-07
3.6046e-07 1.82827e-07 1.15417e-07
3.23685e-05 3.11292e-05 4.40199e-05
-9.42827e-08 5.06017e-08 -1.88584e-08
-8.27768e-08 4.35381e-08 -4.80987e-08
-1.70523e-07 1.06156e-07 -1.30317e-08
-3.03178e-07 2.61119e-07 -7.10774e-08
3.71864e-05 3.56873e-05 4.94158e-05
7.52002e-06 3.25968e-06 -7.18201e-07
2.52746e-06 4.91655e-06 -2.49089e-06
2.68251e-06 4.59421e-06 -2.15465e-06
0.000236338 1.00614e-05 -3.25281e-05
0.000222813 1.13097e-05 -3.19923e-05