# vtk DataFile Version 2.0
S, Created by Mohamad Ibrahim Cheikh
ASCII
DATASET UNSTRUCTURED_GRID
POINTS 10490 double
-223.577 20.339 -34.7913
-223.73 23.2852 -32.7651
-130.491 -29.3079 69.2843
-194.384 -37.8827 -41.0228
-207.472 29.5076 40.0418
-235.877 27.3982 13.4742
-191.274 -39.7118 -41.0822
14.4048 -3.132 87.7997
-191.069 39.2224 -41.6654
-193.409 36.9329 -42.4288
-251.147 3.21248 -3.38088
-251.007 5.46252 -0.714948
-204.326 29.2997 -42.1206
18.6027 -1.51375 87.7459
-201.229 30.3638 -43.1793
-151.325 68.7408 -14.667
-148.532 69.9511 -12.2403
241.381 21.7606 -11.7086
240.378 24.3446 -8.78225
39.5417 72.9238 -47.2725
43.3781 72.2144 -47.9448
45.426 -3.19975 -86.4935
49.2873 -1.51115 -86.2804
-145.563 -45.4944 -55.499
-142.058 -46.9189 -55.4248
-191.797 -27.3642 49.9145
-189.472 -30.0425 49.4595
-64.3398 -67.8356 51.3373
-66.481 -66.0159 53.3366
-121.228 -41.6792 -64.8658
-205.491 44.6072 24.1741
-208.432 41.8714 25.9213
-64.8757 -22.5881 81.9664
-61.2427 -23.9282 81.9283
44.312 4.18742 86.5221
-201.398 -44.9175 27.5769
-52.1074 82.6341 -24.149
-48.9639 82.3023 -26.0154
-109.541 -78.4117 -11.2486
-105.515 -79.2425 -10.0783
-195.496 42.6402 35.3085
-200.947 -43.003 30.8391
-54.4272 -15.3227 84.5372
3.51609 8.2787 87.6011
226.254 36.0725 -13.2454
223.494 37.279 -15.4581
-146.994 22.4235 -67.7923
-143.833 23.6864 -68.1919
-167.022 -43.0234 -49.776
-163.503 -43.4782 -50.8004
-215.266 -7.15797 -44.9376
-215.166 -3.16209 -45.4521
-105.633 -17.6143 77.895
-104.096 -21.1509 77.2657
-247.96 -12.5226 7.72452
-247.222 -12.2243 10.5722
-226.224 -18.8461 33.5139
-129.024 -40.8337 -63.549
238.447 4.07561 -27.6835
236.191 2.11807 -30.1594
30.6777 -3.72764 -87.2633
26.706 -1.99245 -87.4798
-224.96 -22.5397 32.2505
-47.6607 -75.8718 41.3445
-235.553 -26.7705 15.3058
-110.209 51.2146 -60.2828
-237.919 -25.289 13.199
-16.8428 -1.46012 -87.7903
-20.0195 -4.00497 -87.6293
25.3039 7.54378 -87.2279
27.3602 3.7222 -87.3985
25.4468 1.72383 -87.5314
45.969 -6.3193 -86.2865
-242.159 -16.9747 16.6261
249.587 -5.36895 -9.40942
249.11 -2.3025 -11.8808
-169.14 48.1677 43.833
30.4596 -13.478 -86.3062
-165.514 47.9389 45.7372
-244.371 -14.443 14.973
243.986 6.92802 20.1943
244.544 3.56443 20.2422
-218.53 -34.2527 26.9082
-142.145 -69.4109 21.2693
-139.63 -70.7397 18.7864
-221.096 -32.0563 27.0481
-157.97 -59.7998 33.3582
-205.037 32.4636 39.2824
-154.319 -61.3636 32.6023
21.3258 7.38378 87.3716
-119.063 18.5254 75.2678
-116.394 20.6123 75.2362
25.5779 -59.0319 64.6463
29.1125 -57.6605 65.6925
-134.528 55.0601 -49.9666
-136.812 52.5685 -51.8551
-177.091 57.9196 23.447
-176.691 59.394 19.8524
-69.8 65.3557 -53.6298
-62.7456 16.9376 -83.5171
-66.3625 16.9211 -83.1775
-66.2696 66.9094 -52.2442
124.458 57.7476 50.1278
121.025 58.354 50.4538
-132.441 -69.847 26.7936
-132.815 -68.001 30.9874
-188.861 35.1216 46.2987
-185.114 37.2927 46.4533
-232.726 13.1743 -30.6501
-59.6229 75.3291 40.4264
-60.9374 76.8413 37.2126
-231.927 16.7986 -29.6016
-175.271 -46.9573 -42.1659
-178.788 -11.2289 60.8638
-181.798 -8.37518 60.2286
-195.818 53.7544 12.6455
-198.371 52.0677 14.6692
-195.137 -6.4035 -55.1457
-196.11 -2.36362 -55.0441
-155.755 25.0599 64.3887
-159.459 22.4887 64.2278
-196.21 -54.5515 -7.39867
-193.182 -56.048 -5.79652
-91.0323 75.2619 -32.6357
-87.0434 75.6518 -33.0636
-39.2316 -78.9673 -36.3281
-42.7326 -77.6543 -38.6036
-35.7013 20.6036 -84.6371
-119.249 -59.0772 -50.1286
-116.054 -58.3895 -51.8238
-103.565 -58.9111 54.4089
-107.46 -57.2195 55.2824
-176.069 46.9101 -41.8101
26.9033 14.0233 -86.364
23.7812 15.797 -86.1697
-175.601 44.5879 -44.5049
-89.4442 -39.5892 72.0917
-93.3135 -38.4506 72.1076
-1.70736 -75.0123 -46.0087
2.63168 -75.2486 -45.6157
-158.022 -33.1958 -59.8736
-154.736 -36.6318 -58.9129
25.5303 72.9654 48.3762
28.0322 70.9651 51.1052
-166.572 38.816 53.2947
-168.984 36.4428 54.0355
126.643 60.2644 46.3532
124.993 62.238 44.2455
55.9171 20.2596 83.3711
-158.147 12.6492 67.2455
-155.545 9.8577 68.445
-43.7957 73.6554 -45.6514
70.9229 53.0887 -65.6487
-41.1043 75.3249 -43.1659
222.064 -27.8282 -30.5325
225.276 -26.0124 -29.2252
-17.0606 79.815 -36.5776
-19.841 78.5617 -39.0366
247.477 -7.06407 13.9944
245.671 -9.07239 16.5073
-182.891 19.8567 57.0484
-181.35 22.6999 56.5883
-55.4089 68.7727 51.3656
-53.1546 70.6435 49.0671
-221.672 26.3874 -32.1193
245.289 -12.7014 14.7129
-123.336 -44.6593 -62.3472
-128.466 -46.9 -59.3621
-126.782 -44.2467 -61.7926
-219.064 -11.0529 41.7916
-206.367 49.8801 -6.48085
-208.051 48.5177 -9.51752
-173.562 -35.1387 53.115
-196.133 -34.8661 -42.646
-56.8315 10.652 85.0594
-99.3557 80.6966 4.84559
-149.825 -21.4672 67.3417
-153.216 -21.7126 66.3213
-105.507 79.849 2.30094
-103.148 80.0765 5.39885
-208.259 -1.82505 -49.3013
-211.702 -0.425769 -47.5056
6.83861 76.685 -43.1009
8.46916 74.9395 -46.0357
-16.1363 86.1031 -17.2737
-19.8888 85.4044 -20.0412
12.2345 74.4025 -46.7968
-209.317 34.9085 -34.0774
-209.425 37.4836 -31.1338
-243.669 12.2911 -17.9912
-205.993 40.0934 -30.6827
-237.951 16.7302 23.0647
-240.124 13.5361 22.3944
-198.669 34.6941 41.3287
-44.0895 -51.8591 -69.4021
-47.9348 -52.1771 -68.8494
-64.3751 78.5052 -32.7653
-61.2438 79.4887 -31.0858
-198.902 37.6908 38.4683
-195.378 39.9856 38.3624
193.193 51.848 -22.051
191.207 51.6126 -24.5775
-17.3932 72.8231 -49.0281
-16.0987 71.0827 -51.5705
-160.712 -8.67596 67.1308
-158.257 -5.14308 68.1999
-159.179 -12.1843 67.0329
-155.586 -13.9483 67.7184
-181.217 -39.3679 -46.622
-187.068 -34.894 -47.3501
234.201 -8.19811 31.0077
231.367 -8.83959 33.3482
-185.724 -37.8052 -45.7356
-220.423 -36.3319 -21.8074
-223.2 -33.1947 -23.2994
-74.1315 69.6675 47.0917
-199.247 43.3724 -31.6607
-202.411 40.5177 -32.9591
-78.8925 71.9983 42.4057
-75.0387 71.8384 43.5185
-199.862 -47.1005 -25.2004
-196.405 -49.1627 -24.5821
-156.238 -38.5628 57.1695
-155.215 -34.6043 59.9749
-162.906 56.2621 -36.4619
-159.757 58.0904 -35.2814
245.94 -16.0778 8.95235
246.756 -13.0533 10.9096
-202.19 25.1243 -45.9098
246.469 -16.6405 5.45936
-222.675 -40.7295 -3.81027
-219.564 -42.6765 -4.53609
-225.911 36.4546 -12.9115
-224.086 36.2139 -16.8755
-228.9 -34.8682 10.65
-231.376 -33.5772 7.89151
-225.472 -37.7616 9.69465
119.568 74.8264 19.8664
-172.163 -51.1023 -38.7774
115.373 75.6417 19.816
47.9151 12.1692 -85.5268
51.5022 10.7723 -85.4588
-180.221 -22.1747 57.2346
-179.942 52.323 -32.2815
-165.451 0.84805 66.2712
-168.574 2.82566 65.2448
-181.02 -17.4168 58.5563
36.4522 -59.7543 63.3305
37.7865 -57.2074 65.5477
-159.985 -59.9393 -31.9009
-182.767 -21.7979 -56.3845
-184.312 -18.0302 -57.0951
-11.9356 15.0853 -86.5967
-188.59 -54.9978 19.1016
-192.466 -53.1211 19.6702
-145.935 9.33742 -71.0591
-143.736 12.1414 -71.1841
-174.363 52.4237 35.6869
-173.427 50.7204 38.589
-187.176 39.7198 -43.3243
-231.497 33.4969 -7.79798
-229.091 35.971 -4.95928
-234.903 30.8719 -5.94155
241.404 7.72096 23.4445
239.892 10.8369 24.1019
240.609 13.4019 21.8298
-138.879 -61.83 -39.493
-138.123 -60.1625 -42.2936
-141.495 -58.2501 -43.5862
-200.351 -41.1643 -33.6911
-218.716 20.1161 -38.5059
-52.6745 9.05814 85.5702
-56.6796 -81.183 27.5683
-60.1941 -81.4607 25.7788
-152.604 56.1706 41.6857
-153.374 58.0586 38.6419
-189.413 -9.89732 -57.0402
-186.065 -8.87928 -58.5371
64.9127 -8.70754 84.5713
67.8938 -7.07206 84.4372
-196.835 -37.2193 40.1906
-200.415 -34.6097 40.3563
-180.668 -48.2455 -37.6846
-174.532 -52.0916 -36.0704
-215.618 -38.5089 23.8561
-218.655 -36.4148 23.7605
-178.254 -50.9817 -35.4217
-121.543 47.9525 -60.2987
-71.2116 59.6665 59.6914
26.8711 -68.3001 54.6873
24.8081 -66.5873 56.8752
-87.1921 -8.58609 -82.0945
-84.0122 -6.27859 -82.7071
-31.3656 85.9225 -15.5202
-35.0918 85.4497 -17.0757
-75.0241 60.1654 58.6089
-117.608 48.9916 -60.4187
67.0891 -10.9652 -84.0994
63.3398 -11.5717 -84.3736
-122.312 44.7459 -62.5316
-76.0662 64.1716 -54.0149
-79.5946 64.3369 -53.1895
-210.937 -46.4386 -11.8319
-207.911 -47.2774 -14.7161
-70.3841 -66.9052 51.5866
-82.3523 61.8375 -55.586
181.004 57.573 -20.4509
187.792 54.7429 -20.7267
-57.9883 -57.7678 -63.2075
-60.2494 -59.9488 -60.8746
185.029 56.5062 -18.9618
-52.2133 4.94496 85.9405
170.803 -60.9399 -21.4146
166.657 -61.8363 -22.7991
-242.161 -11.2306 20.9366
-241.443 -7.71435 23.3972
231.623 25.861 -22.5153
229.371 25.1804 -25.8603
225.985 27.6876 -26.9257
-235.384 -18.9693 -24.5116
-234.85 -16.6286 -26.738
-226.066 27.1642 -27.3715
-222.95 28.4622 -29.1257
-220.767 31.377 -28.1506
-250.634 -7.29458 -0.178512
-176.044 45.3085 43.5525
58.656 51.2748 -68.5104
59.7415 48.4464 -70.4272
128.104 68.3809 32.5407
131.597 68.3046 30.9559
-176.929 47.6179 40.5461
-181.031 46.7553 39.3142
18.7049 -86.4179 15.2679
142.032 69.3642 -21.5128
141.093 68.3965 -25.0735
23.2385 -86.1703 15.8921
181.098 -44.0245 42.315
25.6368 -86.6619 12.3796
-189.025 21.6454 -53.8606
-189.446 17.8993 -55.0419
-212.326 -45.0145 14.0795
-120.848 -47.0027 -61.2107
-24.3208 -37.2725 79.2612
52.3124 18.5416 -84.0546
55.8265 16.7542 -84.153
-25.2911 -41.1216 77.2962
-119.137 -6.53203 -77.2243
-115.757 -7.74778 -77.7395
-200.048 16.4749 50.7247
-215.148 -43.2642 14.3202
-153.424 33.0516 61.3979
-156.848 31.3659 61.2228
-157.697 28.2168 62.4755
-79.9677 -83.4309 0.60292
-63.052 73.002 -43.9087
-62.3774 70.9522 -47.2591
-79.8045 -83.3553 -4.0211
-209.642 -18.6814 44.8801
-59.7826 71.5772 46.7242
-205.671 -19.6739 46.6697
-191.283 -46.3884 33.3538
-190.154 -45.0077 35.9364
-195.131 47.3256 29.028
-192.216 -42.638 37.4506
-97.6774 19.8359 78.6285
-94.082 21.0083 78.8604
-195.846 -41.8722 35.9836
-247.68 -8.81184 12.4833
188.065 -42.0217 40.5957
184.93 -44.2656 39.9694
-127.153 75.5119 7.90609
-123.515 76.0459 9.65498
48.8596 1.69863 86.3067
130.446 15.5945 -73.6039
-179.699 46.5272 -40.3204
198.595 13.1806 52.3604
200.49 9.43408 52.2853
113.343 74.8981 23.695
109.601 75.3515 24.4023
149.557 63.7442 -30.6958
145.727 65.355 -29.5421
-166.875 -45.6696 -47.4229
129.842 19.3582 -72.8369
-209.802 43.708 -21.0862
-206.941 46.1313 -19.3097
126.467 20.2106 -73.3307
-61.8889 -0.307172 85.2934
-59.1748 2.61271 85.4896
[...]
POINT_DATA 10490
VECTORS F double
1.27798e-08 3.03512e-08 7.68837e-09
1.2906e-07 9.05597e-08 -4.35364e-08
1.36987e-07 7.04332e-07 3.29526e-07
5.80647e-08 -7.32184e-09 -2.69239e-08
2.8792e-07 2.61449e-07 -1.00224e-08
1.83745e-07 1.97119e-07 -7.00451e-09
8.48434e-08 2.64984e-08 -7.39777e-08
-1.87264e-06 2.21486e-06 1.16622e-07
9.69608e-07 7.40415e-07 1.52622e-07
1.06348e-06 6.38091e-07 -3.8083e-08
1.24449e-08 7.47255e-08 -4.21972e-08
1.09324e-08 5.87836e-08 -2.08477e-08
9.86477e-08 3.62019e-07 1.93236e-07
-2.31694e-06 3.78611e-06 1.25454e-07
1.40967e-07 1.15859e-07 1.04132e-09
3.35608e-06 6.36085e-07 -1.25813e-06
4.34407e-06 7.56843e-07 -2.12862e-06
-1.1822e-08 2.22988e-08 1.16044e-08
-1.38456e-08 2.16207e-08 1.354e-08
-2.79161e-05 5.40967e-06 5.48619e-06
-2.70831e-05 4.54805e-06 3.85022e-06
-3.21991e-06 1.85136e-06 -2.75531e-07
-2.92895e-06 1.34857e-06 -2.28465e-07
3.09186e-08 2.21354e-07 -1.91379e-07
5.74192e-08 2.48148e-07 -2.28084e-07
1.44911e-08 1.66951e-07 9.83435e-08
-7.84951e-10 1.42536e-07 8.62107e-08
-4.44878e-08 1.86231e-07 2.39254e-07
-1.864e-07 1.43556e-07 1.49237e-07
2.52051e-07 2.12821e-07 -1.94419e-07
5.7455e-07 2.61765e-07 1.14924e-07
3.79095e-07 2.87711e-07 -9.15428e-08
1.18949e-07 2.9607e-06 8.2743e-07
-3.11457e-07 1.54873e-06 4.23821e-07
-1.98086e-06 2.99263e-06 -2.06306e-08
1.39366e-08 2.86838e-08 5.91821e-08
9.6512e-05 1.898e-05 3.94495e-05
0.00010558 2.24631e-05 4.6735e-05
3.93918e-08 6.10371e-10 -5.12171e-08
3.38356e-08 -2.58851e-09 -2.30126e-08
6.46969e-07 3.56022e-07 8.61384e-09
2.64222e-08 2.92731e-08 6.1897e-08
3.20349e-07 2.77515e-06 5.28255e-07
-1.48199e-06 3.54667e-06 -3.27893e-07
-2.3384e-08 1.39998e-08 -1.07755e-08
-3.9519e-08 3.56888e-08 1.61138e-08
1.30006e-06 8.85264e-07 -5.23068e-08
1.10582e-06 1.74129e-06 3.19274e-07
-5.30134e-08 1.04761e-07 -6.87715e-08
-4.62899e-08 1.179e-07 -8.26657e-08
5.39288e-08 1.49051e-07 -5.53704e-08
7.10572e-08 1.58096e-07 -5.21821e-08
9.67876e-07 2.37152e-06 6.96962e-07
1.02746e-06 2.29101e-06 7.96621e-07
-4.08122e-08 9.93375e-08 6.51428e-10
-2.8696e-08 7.48339e-08 4.3736e-09
5.86583e-08 9.78264e-08 1.03489e-07
1.78154e-07 3.45142e-08 -6.6461e-08
-1.91889e-08 1.28592e-08 -1.83425e-08
-1.81824e-08 7.92817e-09 -1.68752e-08
-2.52985e-06 3.00263e-06 -2.37151e-07
-2.30459e-06 3.91721e-06 -1.75356e-07
1.24785e-08 8.76012e-08 7.18804e-08
-3.83355e-08 5.40418e-08 9.3763e-08
-1.14525e-08 1.25906e-08 4.4365e-10
1.33636e-05 6.30849e-06 2.36835e-06
-2.13646e-08 3.72769e-08 2.42739e-08
-4.72639e-07 4.8957e-06 -7.03246e-08
1.62433e-07 3.79521e-06 -1.77999e-07
-6.72914e-07 6.97782e-06 5.79566e-07
-3.40414e-06 5.37998e-06 9.86553e-08
-2.25099e-06 4.08374e-06 3.04833e-10
-1.24306e-06 2.14011e-06 -2.37812e-07
5.35039e-09 4.53908e-08 5.58863e-08
2.64496e-09 1.33401e-08 9.84589e-10
-3.51719e-09 4.82692e-09 -9.96315e-09
3.25263e-07 3.91872e-07 -2.7696e-07
9.80303e-07 1.57633e-06 -2.03811e-07
4.75368e-07 5.67245e-07 -3.83937e-07
8.3418e-10 2.92593e-08 2.98928e-08
-9.93766e-09 1.10274e-08 1.0918e-08
-2.87201e-09 1.13286e-08 2.25189e-09
1.93143e-08 1.58829e-08 3.94232e-08
2.59476e-08 5.99344e-09 4.0791e-08
1.32803e-08 3.30756e-09 2.4541e-08
1.58408e-08 1.84234e-08 3.76884e-08
3.79956e-08 3.3366e-08 8.18427e-08
2.35972e-07 3.03726e-07 -1.0021e-07
3.93957e-08 2.84576e-08 7.63927e-08
-1.16448e-07 4.67337e-06 -3.91468e-07
2.20982e-06 2.82668e-06 -2.67749e-07
2.03013e-06 3.3088e-06 -5.21984e-07
-2.45629e-08 1.873e-07 1.72223e-07
-6.58477e-08 2.7614e-07 2.45949e-07
5.07224e-06 3.21084e-06 1.86619e-06
6.40372e-06 2.61082e-06 5.78227e-07
4.23918e-07 3.44033e-07 -4.57839e-07
1.32158e-06 5.9671e-07 -3.4515e-07
2.84837e-05 2.04477e-05 2.03797e-05
2.221e-06 1.55643e-06 1.11358e-07
1.9716e-06 2.60579e-07 -1.39578e-07
2.7383e-05 2.30359e-05 2.52495e-05
-9.8704e-07 3.44466e-07 -9.67893e-08
-1.04657e-06 3.71496e-07 -1.22304e-07
3.29121e-09 1.28403e-08 3.54657e-08
-8.52213e-10 1.78694e-08 3.87661e-08
1.02989e-06 5.51589e-07 9.59144e-08
1.01129e-06 6.93772e-07 -6.3572e-08
6.16166e-08 8.5481e-08 -2.05373e-08
4.72422e-05 2.41933e-05 -3.65503e-05
4.7871e-05 2.39772e-05 -3.99135e-05
3.5215e-08 8.81055e-08 1.6219e-08
4.45771e-08 -2.27413e-08 2.64014e-09
4.44074e-07 3.81572e-07 2.30104e-07
2.20664e-07 1.41745e-07 1.01257e-07
6.84426e-07 3.72662e-07 -2.8656e-07
8.2427e-07 3.93076e-07 -3.05228e-08
-6.97327e-09 1.19305e-07 -1.08333e-08
1.27774e-07 1.65352e-07 -6.28349e-08
3.81195e-07 2.46566e-06 -8.46738e-07
1.2901e-06 9.5532e-07 5.76414e-08
7.8515e-09 -1.80378e-09 -1.21929e-08
-1.52482e-09 -5.19769e-10 1.12436e-08
2.7369e-05 7.7246e-06 8.46716e-06
2.87531e-05 9.43688e-06 1.23246e-05
-4.40268e-08 5.01593e-08 -1.03212e-07
-3.01848e-08 6.46885e-08 -1.26036e-07
1.55287e-06 1.06774e-05 2.51904e-06
1.27351e-07 1.58045e-07 -2.23348e-07
1.24105e-07 1.83922e-07 -2.4125e-07
3.85928e-08 1.45907e-07 1.66974e-07
8.49083e-08 2.35685e-07 2.64149e-07
2.53045e-06 7.64195e-07 -4.47225e-07
-2.94316e-07 6.48471e-06 1.04172e-06
-2.28663e-06 3.47897e-06 5.60513e-07
7.05833e-07 6.65286e-08 -2.74316e-07
2.36396e-07 5.69495e-07 3.48646e-07
2.97055e-07 8.88913e-07 5.21066e-07
-6.28623e-08 8.17762e-08 -1.33042e-07
-6.1725e-08 5.90696e-08 -9.7879e-08
1.24817e-07 2.39359e-07 -1.7304e-07
2.62403e-08 1.51359e-07 -1.02553e-07
-4.68824e-05 1.86715e-05 -2.51329e-05
-4.11554e-05 2.04977e-05 -2.56995e-05
2.718e-06 1.21626e-06 1.54221e-07
2.35633e-06 1.40449e-06 -4.50398e-08
-5.20719e-07 1.47293e-07 -1.73116e-08
-1.37974e-06 1.6875e-08 4.53476e-07
-9.11112e-07 7.38342e-07 -1.04606e-07
9.51341e-07 1.04786e-06 7.68127e-08
2.34654e-07 2.73356e-07 2.59171e-08
4.45483e-05 3.87714e-05 5.73224e-05
-5.78186e-06 2.87111e-06 1.55704e-06
4.90537e-05 3.72454e-05 5.92744e-05
-2.42295e-09 8.10428e-09 -9.54349e-09
-1.56263e-09 6.38582e-09 -7.1589e-09
9.21655e-05 4.84765e-05 0.000100516
8.25781e-05 5.19418e-05 9.93951e-05
-6.65113e-10 -3.47393e-10 1.26391e-09
-1.19797e-09 8.32533e-10 2.63848e-09
3.77016e-07 5.55973e-07 -4.55376e-08
3.14708e-07 6.14634e-07 -1.23078e-07
3.97116e-05 3.16514e-05 -3.71329e-05
4.01465e-05 3.17657e-05 -4.04095e-05
2.02979e-07 7.82449e-08 -1.07229e-07
-3.98854e-09 -1.55992e-09 6.79247e-09
2.43986e-07 1.94139e-07 -1.98154e-07
9.14885e-09 1.30298e-07 -1.05368e-07
2.26654e-07 3.60938e-08 -8.27799e-08
-1.03312e-09 1.346e-07 3.49361e-08
5.68519e-07 3.03211e-07 1.17287e-07
6.09634e-07 3.28766e-07 4.43804e-08
9.43501e-08 1.38001e-07 1.29042e-07
9.1664e-08 4.43414e-09 -5.52381e-08
1.97475e-06 3.84243e-06 -3.19653e-07
3.33699e-05 5.12948e-06 -1.65267e-06
-4.14956e-08 2.71305e-07 7.51832e-08
-7.4571e-08 3.72234e-07 1.00773e-07
2.92564e-05 4.92353e-06 -6.61588e-06
3.12568e-05 5.38607e-06 -6.77313e-06
4.82279e-08 9.4371e-08 -2.84363e-08
6.79487e-08 1.90881e-07 -3.87832e-08
-1.71614e-05 3.22641e-05 5.70708e-05
-3.3767e-05 2.86219e-05 4.58319e-05
0.00025656 1.48836e-05 4.48433e-05
0.000225923 1.92651e-05 5.46452e-05
-3.43209e-05 2.18849e-05 3.36964e-05
3.02461e-07 2.26337e-07 4.3986e-09
8.88143e-07 4.82013e-07 -1.51106e-07
1.06838e-07 1.82896e-07 -5.22084e-08
7.97849e-07 6.12052e-07 1.43977e-07
6.93434e-08 2.07482e-07 -6.29125e-08
8.23224e-08 1.74693e-07 2.47949e-09
4.2027e-07 -1.88909e-07 4.05925e-07
4.32995e-07 3.15696e-07 -2.69574e-07
3.98515e-07 4.01514e-07 -3.38253e-07
6.19676e-05 2.14785e-05 3.65559e-05
6.62693e-05 2.02657e-05 3.5836e-05
7.02216e-07 -4.39026e-08 4.87541e-07
5.14984e-07 2.96243e-07 1.23327e-08
-7.79229e-08 3.70208e-08 3.46108e-09
-1.09438e-07 5.97646e-08 2.12659e-08
1.36701e-05 4.6358e-05 6.82634e-05
-2.8592e-06 4.2274e-05 5.83781e-05
7.35418e-07 4.22339e-07 2.70133e-07
9.01651e-07 3.50756e-07 2.82609e-07
1.88739e-07 1.57391e-07 8.34795e-08
3.05766e-07 3.72445e-07 1.62722e-07
1.02435e-07 9.99277e-08 -1.33126e-07
1.16327e-07 7.78951e-08 -1.1367e-07
1.56178e-09 1.03791e-08 1.29909e-09
1.14967e-09 1.01979e-08 1.72556e-09
8.84579e-08 6.41005e-08 -9.69638e-08
3.52855e-09 3.01305e-09 -9.38642e-09
-1.2605e-09 5.16559e-09 -5.88116e-09
3.40068e-05 1.48612e-05 -1.54314e-05
7.994e-07 6.43638e-07 2.65802e-07
8.34953e-07 6.05542e-07 1.16624e-07
2.89348e-05 1.03017e-05 -1.09001e-05
3.26654e-05 1.46654e-05 -1.73129e-05
4.08278e-09 1.41518e-08 -3.04142e-08
2.86971e-10 7.6583e-09 -1.55968e-08
6.59514e-08 2.63675e-07 1.99924e-07
1.98272e-07 2.44828e-07 2.04083e-07
1.55011e-06 1.11588e-06 8.7392e-07
1.93067e-06 1.01442e-06 5.99908e-07
2.03073e-09 7.16713e-09 6.0434e-09
7.20489e-10 7.6713e-09 7.18457e-09
3.3286e-07 2.34606e-07 -5.10878e-08
6.8354e-10 3.14362e-09 5.79951e-09
-2.84715e-08 2.00487e-08 -1.0595e-08
-2.16455e-08 1.00474e-08 3.37444e-08
3.15274e-07 2.40427e-07 3.45352e-09
4.08591e-07 3.17453e-07 1.69755e-08
1.22938e-08 -1.71774e-09 2.67251e-08
-2.45492e-09 1.16788e-08 4.08796e-08
1.72379e-09 -5.43169e-09 -1.62454e-08
-2.00658e-06 2.2091e-07 6.46567e-07
5.19057e-08 -1.9946e-08 -1.92944e-09
-2.07146e-06 2.81863e-07 4.00712e-07
6.57082e-07 1.42376e-06 2.47647e-07
5.76164e-07 9.44729e-07 1.61596e-07
1.09903e-07 3.17854e-07 1.65517e-07
1.60737e-06 5.32126e-07 -2.34463e-07
4.60641e-07 2.06322e-07 1.38157e-07
4.72498e-07 2.89457e-07 1.36927e-07
1.50888e-07 3.43861e-07 1.59385e-07
-3.68391e-08 1.82616e-07 1.749e-07
-1.68454e-08 1.93208e-07 1.69813e-07
4.21436e-08 1.17527e-08 -4.7958e-08
6.98218e-08 6.47254e-08 -5.27312e-08
2.26771e-07 1.24409e-07 -1.28913e-07
9.86611e-07 9.21457e-06 1.58854e-06
6.7113e-09 9.59694e-09 3.57437e-08
1.75732e-09 8.35492e-09 2.46669e-08
1.1028e-06 7.58312e-07 -1.77642e-07
7.91016e-07 1.11587e-06 -5.22412e-09
1.83871e-06 1.17908e-06 -6.32163e-07
1.29844e-06 9.17743e-07 -4.91817e-07
1.09134e-06 1.06247e-06 3.96818e-07
3.62542e-07 3.05521e-07 -5.29932e-09
3.34504e-07 2.71225e-07 7.54363e-08
2.85974e-07 2.2512e-07 -2.1452e-07
-1.17765e-08 1.9939e-08 8.27974e-09
-8.01276e-09 2.49222e-08 -1.44259e-09
-8.4654e-09 2.44744e-08 -3.60379e-09
7.32726e-08 2.92e-08 -7.72606e-08
1.32705e-08 5.58999e-08 -8.48233e-08
7.41077e-08 1.13844e-07 -1.81599e-07
-1.13585e-08 6.66023e-08 -7.31067e-08
1.32835e-07 2.06861e-07 1.56923e-08
3.07743e-06 5.93954e-06 -3.96809e-07
2.42241e-08 1.89068e-08 6.17734e-08
1.7596e-08 1.83671e-08 6.30715e-08
9.7779e-07 1.64863e-07 2.161e-07
3.53878e-06 1.1753e-06 -4.6229e-08
1.42827e-07 2.52831e-07 -1.01938e-07
1.92337e-07 1.47502e-07 -9.72231e-08
1.95022e-07 5.40453e-07 3.73184e-08
1.61527e-08 9.68406e-07 7.95189e-08
1.99819e-08 7.22354e-08 7.88767e-08
1.46736e-08 7.35024e-08 7.19577e-08
2.11841e-08 2.38468e-08 -4.29632e-08
1.8612e-08 4.36734e-09 -1.73333e-08
1.527e-08 3.42019e-09 2.2419e-08
1.7441e-08 1.23643e-08 3.85986e-08
1.49595e-08 1.80832e-08 -3.5243e-08
8.14714e-06 4.19914e-06 1.3288e-06
2.61691e-05 2.00458e-05 -1.62152e-05
-4.43985e-09 2.10025e-07 2.62572e-07
-1.11114e-07 1.70134e-07 2.0512e-07
8.31945e-07 1.63739e-06 -2.79432e-07
7.38952e-07 1.93163e-06 -2.38536e-07
0.000181639 1.55658e-05 4.12307e-05
0.000164452 1.81754e-05 4.95743e-05
2.42032e-05 1.77129e-05 -1.43901e-05
8.08208e-06 5.96589e-06 2.91144e-06
-8.51931e-07 7.04048e-07 -1.75003e-07
-8.77292e-07 5.76971e-07 -1.59763e-07
5.25776e-06 4.16471e-06 1.72104e-06
2.58771e-05 1.90015e-05 1.81128e-05
2.33438e-05 1.50918e-05 1.39778e-05
1.13805e-09 -5.88935e-09 2.06343e-08
-2.11987e-08 1.57367e-08 -1.38862e-08
-1.35098e-07 6.27735e-08 5.88472e-08
2.20257e-05 1.51245e-05 1.28303e-05
-2.04995e-07 6.07606e-08 -5.10839e-08
-1.62013e-07 7.70947e-08 2.38995e-08
-4.57035e-07 2.79742e-07 -2.04333e-07
-2.82233e-07 1.58481e-07 -1.21872e-07
-2.01514e-07 7.73668e-08 -1.01977e-08
9.88296e-07 5.44172e-06 -2.39602e-07
9.45343e-09 5.44029e-09 -6.25082e-09
9.80531e-09 7.20959e-09 -1.07793e-08
-1.44055e-08 3.32333e-08 -2.57014e-09
6.98748e-09 2.3449e-08 1.656e-08
-5.56394e-09 1.44241e-08 9.5591e-09
-1.56729e-08 2.90055e-08 1.1225e-08
-1.92941e-08 2.52574e-08 6.14616e-09
-3.23761e-08 5.66477e-08 -5.77655e-09
4.50631e-08 3.23819e-09 -5.04723e-08
2.77932e-07 3.2578e-07 4.22729e-08
2.81635e-07 1.57924e-07 -1.09616e-07
2.05166e-07 1.94454e-07 1.97504e-08
-2.31566e-08 9.7746e-08 -1.38967e-08
9.70792e-07 4.8046e-07 -1.94057e-08
-3.77223e-06 3.37422e-06 2.12992e-06
-2.5512e-06 3.47217e-06 2.12351e-06
-1.02308e-06 5.53633e-08 3.7677e-07
-8.81884e-07 -5.92957e-08 5.89839e-07
1.54942e-06 7.58561e-07 -6.30956e-08
1.41194e-06 2.59036e-07 4.87932e-07
-1.43514e-08 9.2335e-09 5.44162e-08
-5.0752e-07 -2.58006e-08 -4.93443e-07
-8.90515e-07 6.05695e-08 -4.48299e-07
-4.4503e-09 5.54921e-10 3.80572e-09
-1.09296e-08 6.61681e-09 1.26109e-08
-1.07188e-08 -7.93662e-10 -2.83522e-09
1.75762e-07 5.1602e-07 1.31856e-07
1.32716e-07 5.02574e-07 1.07509e-07
-2.72833e-08 2.21657e-08 2.04959e-08
3.48261e-07 2.44785e-07 -2.72146e-07
-6.27155e-08 2.52629e-07 1.16442e-07
-1.51851e-06 2.07682e-06 3.42417e-07
-1.44332e-06 1.997e-06 2.80361e-07
-1.52232e-07 2.29986e-07 1.16253e-07
-1.02631e-07 1.07844e-06 -7.18366e-08
-4.19792e-08 1.13586e-06 -1.05552e-07
3.17225e-07 5.99369e-07 -4.14996e-08
-2.62517e-08 2.6812e-08 3.2719e-08
1.59511e-06 2.76106e-06 -9.98325e-07
1.8629e-06 1.91255e-06 -3.95532e-07
-1.85845e-07 2.12002e-06 -1.01493e-06
-3.22488e-08 3.70687e-09 -1.08059e-08
3.75961e-05 2.67092e-05 3.77964e-05
2.90871e-05 2.5874e-05 3.41453e-05
7.07232e-09 -1.84031e-10 -1.33604e-08
2.44783e-09 7.82547e-08 3.39735e-08
4.3071e-05 2.59146e-05 -3.29517e-05
1.44652e-08 1.33559e-07 6.4107e-08
2.39524e-08 2.77245e-08 5.53765e-08
4.00902e-08 2.35999e-08 5.5528e-08
3.63809e-07 3.80459e-07 -3.20864e-07
2.59384e-08 2.3912e-08 4.35226e-08
2.70968e-06 6.42072e-06 -1.20766e-06
3.87e-06 3.66917e-06 -4.12202e-07
1.26499e-08 6.64452e-08 8.57479e-08
-1.30783e-08 7.36783e-08 2.02403e-08
-2.48761e-08 1.3599e-08 2.81861e-08
-1.28822e-08 4.95558e-10 7.84617e-09
7.31242e-06 1.55693e-06 -4.71761e-07
9.29407e-06 2.31338e-06 -3.66409e-06
-2.43678e-06 1.95684e-06 1.3038e-07
-1.61229e-07 3.91966e-07 4.80617e-08
2.52648e-06 9.98874e-07 -2.25928e-07
-5.86695e-08 8.01274e-08 7.07377e-09
-2.41763e-08 9.35139e-08 -5.5237e-09
-1.68122e-06 9.60875e-08 6.80907e-07
-1.94407e-06 5.04597e-07 -4.89078e-07
-9.53853e-07 2.30004e-07 -9.13583e-08
-1.11732e-06 1.35543e-07 -3.74947e-07
-7.49007e-08 1.00155e-07 -6.41839e-08
-4.30229e-07 3.80188e-07 7.14578e-09
5.01389e-07 1.66328e-07 -2.66001e-07
5.00411e-07 1.85235e-07 -2.14053e-07
-4.51211e-07 3.90362e-07 1.23146e-08
6.61276e-07 4.95006e-06 7.65714e-08
1.79445e-06 4.17951e-06 2.43368e-08
1.20049e-06 3.61544e-06 1.75059e-07
1.31493e-08 1.5434e-08 5.50769e-08
7.84754e-06 1.68478e-06 3.39764e-07
8.76559e-06 1.88077e-06 -1.2849e-06
-1.51459e-06 6.34614e-06 -1.10592e-06
1.26121e-08 -2.08447e-09 1.49577e-08
1.97601e-06 4.12486e-06 6.89759e-08
3.25424e-06 8.83213e-06 4.77582e-06
4.88038e-06 5.94576e-06 2.57403e-06
9.81373e-06 8.57412e-06 4.03909e-06
1.03162e-07 4.09995e-07 6.77435e-08
6.77718e-08 5.36703e-07 4.80473e-08
-2.92711e-07 1.47882e-06 1.67828e-07
-4.87622e-08 8.07063e-07 9.4402e-08
6.86124e-07 2.98764e-07 1.53033e-07
3.41506e-07 5.28195e-07 1.02757e-07
1.93631e-06 6.53628e-07 -3.22933e-08
2.61901e-06 1.10816e-06 4.26258e-07
-3.58757e-08 8.51605e-10 2.75939e-08
-3.05749e-08 -2.51319e-09 1.3895e-08
7.47761e-08 1.91086e-08 -8.2304e-08
5.87207e-08 8.82705e-09 -5.0022e-08
-2.14506e-08 6.95785e-08 1.04694e-07
1.39966e-08 5.70928e-08 1.11641e-07
-1.58228e-08 5.8926e-08 9.78888e-08
2.65869e-07 1.01086e-07 2.04317e-07
4.00994e-07 2.46285e-07 -7.00531e-08
5.70167e-07 2.68643e-07 1.42866e-07
2.32276e-08 7.62913e-08 -8.29321e-08
1.25866e-08 7.7798e-08 -7.92076e-08
-4.84046e-08 5.82607e-07 -3.36194e-07
2.7298e-08 3.36081e-07 -1.98779e-07
-3.42577e-07 3.03981e-06 -5.53719e-07
-9.51778e-07 2.15835e-06 -3.9721e-07
-1.49285e-08 6.42507e-08 -5.67238e-08
2.07205e-07 -9.87275e-09 -3.94941e-08
-2.0214e-08 5.5053e-09 1.18202e-08
1.32841e-08 3.38621e-08 -5.2058e-08
-1.59194e-06 3.82626e-06 -1.66197e-07
-7.99021e-08 3.66532e-07 -2.7217e-07
-1.42062e-07 3.16973e-07 -2.23462e-07
2.07766e-05 3.17413e-05 3.11582e-05
1.69295e-06 8.82932e-07 1.30911e-06
8.81504e-05 7.8015e-06 5.26298e-06
9.97094e-05 8.26095e-06 -7.86176e-06
7.92581e-05 8.50094e-06 -1.76945e-05
9.56315e-05 8.10699e-06 -4.03038e-06
1.85023e-06 8.59518e-07 1.29311e-06
2.00154e-05 2.56172e-05 2.43169e-05
1.92385e-05 2.53915e-05 2.21265e-05
4.58456e-08 2.97394e-08 -8.23771e-08
-2.54754e-08 5.81852e-09 -2.96945e-08
-1.29411e-08 4.80259e-09 -5.21119e-08
5.15155e-08 1.8789e-08 -6.83415e-08
2.30884e-08 8.84572e-09 -3.36426e-08
1.39868e-07 2.48129e-07 8.87484e-08
1.00961e-07 3.71703e-07 2.25218e-07
-6.43968e-07 8.69488e-08 2.32139e-07
-2.29185e-05 9.18658e-06 -8.86322e-06
-2.3602e-05 9.73463e-06 -1.01624e-05
-8.76004e-07 7.67186e-07 -2.13073e-07
2.14574e-07 2.05203e-07 -1.66876e-07
3.56775e-07 3.87624e-07 1.06511e-07
1.88461e-07 5.24305e-07 -2.77149e-07
1.77164e-07 2.1749e-07 -1.45855e-07
1.22477e-07 4.5123e-09 7.30716e-08
1.00263e-07 5.34829e-08 1.28744e-07
6.27137e-08 3.20253e-08 8.27616e-08
1.19075e-06 1.59633e-06 -1.0948e-07
1.31677e-06 1.80557e-06 -1.12126e-07
-5.13423e-05 1.97398e-05 -2.92425e-05
-9.97022e-08 2.1671e-07 5.47572e-09
3.23944e-08 6.0554e-09 2.07873e-08
-2.91926e-08 6.63768e-08 1.20208e-07
6.31553e-07 1.93136e-06 -2.05095e-07
6.55549e-07 1.34337e-06 -1.66996e-07
-5.65073e-08 9.79444e-08 -1.33477e-09
1.19239e-07 1.89306e-07 3.80522e-09
-1.12459e-07 1.73044e-07 -1.20532e-08
-1.67565e-05 1.04862e-06 -8.40146e-07
4.44602e-09 1.10643e-07 -5.30711e-08
-1.98266e-09 9.40338e-08 -4.6321e-08
-9.21081e-06 -3.12047e-07 -2.03308e-06
7.95902e-07 7.45547e-07 -2.6661e-07
-1.34901e-05 3.01517e-06 2.48064e-06
-1.13786e-08 1.03666e-07 1.04814e-09
1.68014e-06 6.15574e-07 1.46463e-07
1.853e-06 4.90182e-07 4.76753e-07
2.5537e-09 6.83221e-08 -3.6133e-08
-9.73869e-09 8.02446e-08 2.34698e-08
1.14349e-07 2.05943e-07 -1.24736e-07
1.80066e-08 -1.04359e-08 -1.82059e-08
1.77678e-08 6.28219e-10 -3.74159e-08
4.45699e-07 4.69921e-07 -1.2983e-07
5.57444e-07 3.94671e-07 6.61839e-08
2.71938e-06 2.1702e-06 8.74725e-07
3.28624e-05 2.88049e-05 3.68661e-05
2.52338e-05 2.85725e-05 3.41385e-05
1.69036e-08 8.02198e-10 1.17369e-09
-1.49147e-08 3.01972e-10 -1.65454e-08
2.43787e-05 2.74073e-05 3.06516e-05
3.578e-07 9.67808e-08 1.53424e-07
1.78947e-07 1.44473e-07 1.19307e-08
-2.24119e-08 5.62405e-08 -2.35382e-09
-1.0089e-07 1.91931e-07 1.7248e-07
-9.16294e-08 2.10597e-07 1.73109e-07
-5.17148e-07 3.37218e-06 2.81986e-07
-9.4802e-08 4.15823e-08 3.82805e-08
-2.63057e-08 1.20586e-07 9.42329e-08
-4.70636e-05 3.52661e-05 -5.69788e-05
-3.39898e-05 3.06543e-05 -4.55303e-05
-6.68415e-07 3.37604e-06 2.9551e-07
1.05266e-06 1.20955e-06 -2.42631e-07
-2.41805e-07 2.85659e-06 3.76351e-07
-2.71854e-09 -3.34418e-09 -2.41684e-08
2.21705e-07 7.46372e-07 -2.13358e-07
3.72593e-06 3.60713e-05 -3.5113e-05
3.43778e-07 4.6677e-07 -6.02027e-08
9.27836e-07 6.30712e-07 6.49507e-07
6.04863e-08 1.06157e-07 -5.40858e-08
-3.32406e-08 4.78113e-08 2.95141e-08
8.89671e-09 2.25172e-09 -4.12019e-09
-3.95701e-09 3.336e-09 -2.11438e-08
-1.67949e-05 2.06726e-05 -2.03156e-05
-3.07509e-08 6.31902e-08 9.75769e-08
1.30704e-06 4.91616e-07 -1.81031e-07
-5.32196e-09 -2.62652e-09 1.8161e-09
6.56897e-08 1.30256e-07 1.41931e-07
2.14524e-08 1.07508e-09 2.21916e-08
1.54002e-05 2.49846e-05 -1.82391e-05
2.63129e-07 8.63848e-08 -1.0377e-07
1.39352e-05 2.57018e-05 -2.10597e-05
0.000359474 5.79078e-06 -6.98379e-05
0.00034035 9.4521e-06 -7.25538e-05
1.45226e-08 9.80469e-08 9.33537e-08
0.000139552 5.27283e-05 -0.000145107
1.23109e-08 1.10571e-07 8.96221e-08
-5.37942e-08 7.01111e-08 1.33856e-08
-6.2797e-08 5.10175e-08 -6.0087e-09
4.18354e-08 1.52495e-07 1.28078e-07
1.06037e-06 1.09287e-06 -3.47507e-07
1.43145e-08 7.93858e-10 -1.01248e-08
3.45014e-07 2.7102e-07 -9.60106e-08
3.36983e-05 3.53962e-05 -3.83386e-05
3.47742e-07 1.90301e-07 7.31752e-08
3.51501e-07 1.52466e-07 1.36393e-07
3.59455e-07 1.82158e-07 1.15326e-07
3.21297e-05 3.03167e-05 4.28456e-05
-9.33879e-08 5.01126e-08 -1.87429e-08
-8.20097e-08 4.30832e-08 -4.80645e-08
-1.68721e-07 1.04635e-07 -1.25873e-08
-3.00367e-07 2.58769e-07 -7.04697e-08
3.68499e-05 3.47909e-05 4.81749e-05
7.4926e-06 3.30179e-06 -7.52476e-07
2.57687e-06 4.86398e-06 -2.44871e-06
2.74554e-06 4.57226e-06 -2.12972e-06
0.000231291 9.75512e-06 -3.18127e-05
0.000217842 1.09199e-05 -3.0834e-05