# vtk DataFile Version 2.0
S, Created by Mohamad Ibrahim Cheikh
ASCII
DATASET UNSTRUCTURED_GRID
POINTS 10490 double
-223.577 20.339 -34.7913
-223.73 23.2853 -32.7651
-130.491 -29.3072 69.2846
-194.384 -37.8827 -41.0229
-207.471 29.5079 40.0418
-235.877 27.3984 13.4741
-191.274 -39.7118 -41.0823
14.4029 -3.12978 87.7998
-191.068 39.2231 -41.6652
-193.408 36.9335 -42.4289
-251.147 3.21256 -3.38092
-251.007 5.46257 -0.714969
-204.326 29.3 -42.1204
18.6003 -1.50996 87.746
-201.229 30.3639 -43.1793
-151.322 68.7415 -14.6683
-148.528 69.9518 -12.2424
241.381 21.7606 -11.7086
240.378 24.3447 -8.78223
39.5139 72.9292 -47.2671
43.3511 72.2189 -47.941
45.4228 -3.19791 -86.4938
49.2844 -1.50981 -86.2806
-145.563 -45.4941 -55.4992
-142.058 -46.9186 -55.425
-191.797 -27.364 49.9146
-189.472 -30.0423 49.4596
-64.3398 -67.8354 51.3375
-66.4812 -66.0158 53.3367
-121.228 -41.679 -64.866
-205.49 44.6075 24.1742
-208.432 41.8717 25.9212
-64.8756 -22.5852 81.9672
-61.243 -23.9266 81.9287
44.31 4.19041 86.522
-201.398 -44.9174 27.5769
-52.0116 82.6529 -24.1101
-48.8591 82.3245 -25.9693
-109.541 -78.4117 -11.2487
-105.515 -79.2425 -10.0784
-195.495 42.6406 35.3085
-200.947 -43.003 30.8391
-54.4269 -15.3199 84.5377
3.5146 8.28225 87.6008
226.254 36.0725 -13.2454
223.494 37.279 -15.4581
-146.993 22.4244 -67.7924
-143.832 23.6881 -68.1915
-167.022 -43.0233 -49.776
-163.503 -43.4781 -50.8004
-215.266 -7.15782 -44.9376
-215.166 -3.16194 -45.4521
-105.632 -17.6119 77.8957
-104.095 -21.1486 77.2665
-247.96 -12.5225 7.72452
-247.222 -12.2242 10.5722
-226.224 -18.846 33.514
-129.024 -40.8337 -63.5491
238.447 4.07562 -27.6835
236.191 2.11808 -30.1594
30.6752 -3.72464 -87.2635
26.7037 -1.98855 -87.48
-224.96 -22.5397 32.2506
-47.6607 -75.8717 41.3446
-235.553 -26.7705 15.3058
-110.196 51.2208 -60.2804
-237.919 -25.289 13.199
-16.8433 -1.45524 -87.7904
-20.0193 -4.00118 -87.6295
25.3032 7.55072 -87.2273
27.3568 3.72755 -87.3984
25.4446 1.72789 -87.5314
45.9678 -6.31717 -86.2867
-242.159 -16.9747 16.6262
249.587 -5.36894 -9.40942
249.11 -2.3025 -11.8808
-169.14 48.1681 43.8327
30.4606 -13.4764 -86.3064
-165.513 47.9395 45.7369
-244.371 -14.4429 14.973
243.986 6.92803 20.1943
244.544 3.56445 20.2422
-218.53 -34.2527 26.9082
-142.145 -69.4109 21.2693
-139.63 -70.7397 18.7864
-221.096 -32.0563 27.0482
-157.97 -59.7998 33.3583
-205.037 32.4639 39.2823
-154.319 -61.3636 32.6024
21.3257 7.38845 87.3712
-119.061 18.5282 75.2675
-116.392 20.6156 75.2357
25.5779 -59.0317 64.6465
29.1125 -57.6602 65.6927
-134.523 55.0633 -49.9647
-136.806 52.5711 -51.8545
-177.09 57.9199 23.4466
-176.69 59.3946 19.8521
-69.7717 65.376 -53.6095
-62.7434 16.9392 -83.517
-66.3606 16.9213 -83.1776
-66.2425 66.9323 -52.2192
124.457 57.748 50.1277
121.024 58.3543 50.4537
-132.441 -69.847 26.7936
-132.815 -68.001 30.9875
-188.86 35.1222 46.2988
-185.113 37.2934 46.4532
-232.726 13.1744 -30.6502
-59.5758 75.3531 40.3902
-60.8898 76.8651 37.1731
-231.927 16.7987 -29.6016
-175.271 -46.9573 -42.1659
-178.787 -11.2285 60.8641
-181.797 -8.37503 60.2287
-195.817 53.7548 12.6452
-198.37 52.0681 14.6692
-195.137 -6.40338 -55.1458
-196.11 -2.36346 -55.0442
-155.754 25.0624 64.3878
-159.457 22.4897 64.2279
-196.21 -54.5515 -7.39868
-193.182 -56.048 -5.79651
-91.0051 75.2695 -32.6273
-87.0148 75.6612 -33.0513
-39.2316 -78.9673 -36.3282
-42.7326 -77.6542 -38.6038
-35.6998 20.6142 -84.6346
-119.249 -59.077 -50.1289
-116.054 -58.3893 -51.824
-103.565 -58.9109 54.409
-107.46 -57.2193 55.2827
-176.066 46.9108 -41.8105
26.903 14.0297 -86.3629
23.779 15.8005 -86.1691
-175.6 44.588 -44.5052
-89.444 -39.5887 72.0921
-93.3132 -38.4497 72.1081
-1.70742 -75.0122 -46.0088
2.63162 -75.2486 -45.6158
-158.021 -33.1956 -59.8738
-154.736 -36.6316 -58.913
25.4836 72.9841 48.351
27.9911 70.9856 51.0795
-166.569 38.8172 53.2949
-168.982 36.4442 54.0355
126.642 60.2645 46.3532
124.992 62.238 44.2459
55.9161 20.2604 83.371
-158.146 12.6502 67.2456
-155.545 9.85797 68.4451
-43.7511 73.6938 -45.5947
70.9172 53.0916 -65.6472
-41.055 75.3617 -43.1075
222.064 -27.8282 -30.5325
225.276 -26.0123 -29.2252
-16.9665 79.863 -36.4782
-19.7568 78.6132 -38.9381
247.477 -7.06407 13.9944
245.671 -9.07239 16.5073
-182.891 19.8573 57.0483
-181.35 22.7005 56.5882
-55.3693 68.8042 51.3287
-53.1144 70.6751 49.0269
-221.672 26.3875 -32.1194
245.289 -12.7014 14.7129
-123.335 -44.6591 -62.3474
-128.466 -46.8999 -59.3622
-126.782 -44.2467 -61.7927
-219.064 -11.0528 41.7916
-206.366 49.8804 -6.48073
-208.051 48.518 -9.51748
-173.562 -35.1386 53.1151
-196.133 -34.8661 -42.646
-56.8296 10.6558 85.0591
-99.3227 80.7017 4.84391
-149.825 -21.4669 67.3418
-153.216 -21.7123 66.3214
-105.478 79.8538 2.29444
-103.117 80.0818 5.3922
-208.259 -1.82496 -49.3013
-211.702 -0.425578 -47.5056
6.82286 76.7176 -43.0431
8.43592 74.9684 -45.9894
-15.8823 86.1176 -17.2298
-19.6647 85.4231 -19.9884
12.2006 74.4245 -46.7629
-209.317 34.9087 -34.0774
-209.424 37.4841 -31.1339
-243.669 12.2913 -17.9912
-205.992 40.0941 -30.6825
-237.951 16.7304 23.0646
-240.124 13.5363 22.3944
-198.669 34.6939 41.3291
-44.0891 -51.8587 -69.4023
-47.9344 -52.1767 -68.8497
-64.3136 78.5264 -32.7291
-61.178 79.5088 -31.0504
-198.901 37.6907 38.4688
-195.377 39.9859 38.3624
193.193 51.848 -22.051
191.207 51.6127 -24.5775
-17.3785 72.8695 -48.9597
-16.101 71.125 -51.5121
-160.711 -8.67554 67.1311
-158.257 -5.14273 68.2002
-159.179 -12.1841 67.033
-155.585 -13.9479 67.7186
-181.217 -39.3678 -46.6221
-187.068 -34.8939 -47.3502
234.201 -8.1981 31.0077
231.367 -8.83958 33.3482
-185.723 -37.8051 -45.7357
-220.423 -36.3319 -21.8074
-223.2 -33.1947 -23.2994
-74.0978 69.6822 47.0763
-199.247 43.373 -31.6605
-202.411 40.5183 -32.959
-78.8638 72.0085 42.3948
-75.0063 71.853 43.5013
-199.862 -47.1005 -25.2004
-196.405 -49.1627 -24.5821
-156.238 -38.5625 57.1698
-155.215 -34.6041 59.9751
-162.904 56.2632 -36.4611
-159.756 58.0914 -35.2808
245.94 -16.0778 8.95236
246.756 -13.0533 10.9096
-202.19 25.1245 -45.9098
246.469 -16.6405 5.45936
-222.675 -40.7294 -3.81029
-219.564 -42.6764 -4.53605
-225.911 36.4548 -12.9115
-224.085 36.2142 -16.8755
-228.9 -34.8682 10.65
-231.376 -33.5772 7.89156
-225.472 -37.7616 9.69463
119.566 74.8266 19.867
-172.163 -51.1023 -38.7774
115.371 75.6419 19.8164
47.9157 12.1706 -85.5265
51.5027 10.7732 -85.4587
-180.221 -22.1744 57.2348
-179.941 52.3235 -32.2818
-165.45 0.848256 66.2713
-168.574 2.82595 65.2449
-181.02 -17.4165 58.5564
36.4522 -59.7541 63.3306
37.7865 -57.2072 65.5479
-159.985 -59.9393 -31.9009
-182.767 -21.7978 -56.3846
-184.311 -18.0301 -57.0953
-11.9346 15.0945 -86.5951
-188.59 -54.9978 19.1016
-192.466 -53.1211 19.6702
-145.934 9.33817 -71.0593
-143.735 12.1425 -71.1841
-174.361 52.4249 35.6863
-173.426 50.7213 38.5885
-187.175 39.7209 -43.3239
-231.497 33.4972 -7.79798
-229.091 35.9713 -4.9592
-234.902 30.8721 -5.94176
241.404 7.72098 23.4445
239.892 10.8369 24.1019
240.609 13.402 21.8298
-138.879 -61.83 -39.4931
-138.123 -60.1625 -42.2937
-141.495 -58.25 -43.5864
-200.351 -41.1642 -33.6912
-218.715 20.1163 -38.5058
-52.6714 9.06406 85.5698
-56.6796 -81.1829 27.5684
-60.194 -81.4607 25.7789
-152.603 56.1708 41.6859
-153.37 58.0598 38.6419
-189.412 -9.89707 -57.0403
-186.065 -8.87913 -58.5372
64.9129 -8.707 84.5713
67.8938 -7.07109 84.4372
-196.835 -37.2192 40.1906
-200.415 -34.6096 40.3563
-180.668 -48.2455 -37.6847
-174.532 -52.0916 -36.0704
-215.618 -38.5089 23.8561
-218.655 -36.4148 23.7605
-178.254 -50.9817 -35.4217
-121.535 47.9567 -60.2974
-71.1855 59.6864 59.6752
26.8711 -68.2999 54.6875
24.808 -66.5871 56.8754
-87.1913 -8.58445 -82.0948
-84.0115 -6.27666 -82.7073
-31.1854 85.9378 -15.4796
-34.9286 85.4676 -17.027
-75 60.183 58.5947
-117.6 48.9975 -60.4158
67.0883 -10.9645 -84.0996
63.3389 -11.5712 -84.3738
-122.307 44.75 -62.5299
-76.0406 64.1904 -53.997
-79.5714 64.3519 -53.1757
-210.937 -46.4387 -11.8319
-207.911 -47.2773 -14.7161
-70.3842 -66.9052 51.5867
-82.3305 61.8525 -55.5733
181.004 57.573 -20.4509
187.792 54.743 -20.7267
-57.9887 -57.7675 -63.2077
-60.2497 -59.9486 -60.8748
185.029 56.5063 -18.9618
-52.2123 4.95039 85.9403
170.803 -60.9399 -21.4146
166.657 -61.8363 -22.7992
-242.161 -11.2306 20.9366
-241.443 -7.71433 23.3972
231.623 25.861 -22.5153
229.371 25.1804 -25.8603
225.985 27.6877 -26.9257
-235.384 -18.9692 -24.5116
-234.85 -16.6286 -26.7381
-226.066 27.1645 -27.3714
-222.949 28.4623 -29.1258
-220.767 31.3772 -28.1506
-250.634 -7.29448 -0.178525
-176.043 45.3089 43.5525
58.6522 51.2781 -68.5083
59.739 48.4498 -70.4251
128.103 68.3809 32.5411
131.596 68.3045 30.9565
-176.927 47.6187 40.5461
-181.03 46.7555 39.3147
18.7049 -86.4179 15.2679
142.031 69.3642 -21.5133
141.092 68.3966 -25.074
23.2385 -86.1703 15.8921
181.098 -44.0244 42.315
25.6367 -86.6619 12.3796
-189.025 21.6459 -53.8605
-189.446 17.8998 -55.0418
-212.326 -45.0144 14.0795
-120.847 -47.0025 -61.211
-24.3208 -37.2722 79.2614
52.3109 18.5436 -84.0542
55.825 16.7562 -84.1527
-25.2913 -41.1214 77.2963
-119.138 -6.53096 -77.2243
-115.757 -7.74665 -77.7396
-200.048 16.4755 50.7246
-215.148 -43.2642 14.3202
-153.423 33.0543 61.3969
-156.846 31.3678 61.2224
-157.697 28.2189 62.4745
-79.9677 -83.4309 0.602909
-63.0146 73.0285 -43.8713
-62.3485 70.9778 -47.2253
-79.8045 -83.3553 -4.02112
-209.642 -18.6813 44.8802
-59.7397 71.6029 46.6915
-205.671 -19.6737 46.6697
-191.283 -46.3884 33.3539
-190.153 -45.0076 35.9365
-195.13 47.326 29.0277
-192.216 -42.638 37.4506
-97.6746 19.8422 78.6273
-94.0781 21.012 78.86
-195.846 -41.8721 35.9837
-247.68 -8.81177 12.4834
188.065 -42.0217 40.5958
184.93 -44.2656 39.9695
-127.146 75.5135 7.90563
-123.506 76.0482 9.65134
48.8571 1.70059 86.3068
130.445 15.5949 -73.6038
-179.696 46.5282 -40.3206
198.595 13.1807 52.3604
200.49 9.43417 52.2853
113.341 74.8982 23.6957
109.599 75.352 24.4018
149.556 63.7444 -30.6959
145.726 65.3551 -29.5425
-166.875 -45.6695 -47.423
129.842 19.3586 -72.8369
-209.801 43.7082 -21.0865
-206.941 46.1315 -19.3099
126.466 20.211 -73.3307
-61.8882 -0.302231 85.2935
-59.173 2.61688 85.4896
-53.8404 -1.96867 85.9373
[...]
POINT_DATA 10490
VECTORS F double
1.27997e-08 3.03343e-08 7.66214e-09
1.28544e-07 9.02705e-08 -4.33093e-08
1.37718e-07 7.05434e-07 3.30152e-07
5.7905e-08 -7.33413e-09 -2.68196e-08
2.87552e-07 2.60583e-07 -9.62013e-09
1.83266e-07 1.96512e-07 -6.80072e-09
8.45934e-08 2.63636e-08 -7.37049e-08
-1.87423e-06 2.22226e-06 1.16857e-07
9.64839e-07 7.36301e-07 1.51443e-07
1.05741e-06 6.35037e-07 -3.73436e-08
1.23961e-08 7.44765e-08 -4.19766e-08
1.08886e-08 5.85566e-08 -2.06657e-08
9.87151e-08 3.60409e-07 1.92081e-07
-2.31726e-06 3.78947e-06 1.25349e-07
1.40757e-07 1.16142e-07 1.35931e-09
3.3433e-06 6.38689e-07 -1.22956e-06
4.32392e-06 7.57522e-07 -2.0942e-06
-1.16047e-08 2.19938e-08 1.15849e-08
-1.35982e-08 2.13027e-08 1.34845e-08
-2.78326e-05 5.24711e-06 5.24716e-06
-2.69932e-05 4.42405e-06 3.67597e-06
-3.19795e-06 1.83825e-06 -2.73579e-07
-2.90843e-06 1.33743e-06 -2.26801e-07
3.08776e-08 2.20578e-07 -1.90729e-07
5.73365e-08 2.47362e-07 -2.2739e-07
1.46965e-08 1.66957e-07 9.84425e-08
-5.67459e-10 1.42544e-07 8.63164e-08
-4.45875e-08 1.86953e-07 2.40191e-07
-1.86909e-07 1.44157e-07 1.49903e-07
2.51466e-07 2.12171e-07 -1.93867e-07
5.72536e-07 2.60682e-07 1.1482e-07
3.7815e-07 2.86451e-07 -9.04407e-08
1.21109e-07 2.95903e-06 8.27064e-07
-3.07027e-07 1.5553e-06 4.26115e-07
-1.98212e-06 2.99151e-06 -2.06065e-08
1.40385e-08 2.86736e-08 5.92549e-08
9.51986e-05 1.85382e-05 3.84076e-05
0.000104099 2.19361e-05 4.556e-05
3.93747e-08 5.84787e-10 -5.1019e-08
3.38454e-08 -2.60558e-09 -2.28965e-08
6.45388e-07 3.54751e-07 9.07322e-09
2.65438e-08 2.9257e-08 6.19717e-08
3.1647e-07 2.7757e-06 5.27955e-07
-1.48614e-06 3.55426e-06 -3.2874e-07
-2.28388e-08 1.3605e-08 -1.07147e-08
-3.86916e-08 3.49608e-08 1.58216e-08
1.294e-06 8.81247e-07 -5.2011e-08
1.10418e-06 1.72152e-06 3.12879e-07
-5.27775e-08 1.044e-07 -6.85561e-08
-4.60695e-08 1.17487e-07 -8.23998e-08
5.3744e-08 1.48464e-07 -5.51676e-08
7.07802e-08 1.57483e-07 -5.19792e-08
9.67279e-07 2.3665e-06 6.95649e-07
1.03025e-06 2.28749e-06 7.9604e-07
-4.06786e-08 9.90627e-08 7.3065e-10
-2.85939e-08 7.4642e-08 4.4435e-09
5.87406e-08 9.76894e-08 1.03479e-07
1.77847e-07 3.44894e-08 -6.63687e-08
-1.90581e-08 1.272e-08 -1.82239e-08
-1.80146e-08 7.75776e-09 -1.67271e-08
-2.5199e-06 2.98186e-06 -2.35724e-07
-2.29639e-06 3.88976e-06 -1.74243e-07
1.2615e-08 8.74739e-08 7.19087e-08
-3.84154e-08 5.43075e-08 9.42382e-08
-1.13843e-08 1.25644e-08 5.26608e-10
1.31143e-05 6.25602e-06 2.38066e-06
-2.12854e-08 3.72109e-08 2.43231e-08
-4.62196e-07 4.86474e-06 -6.97845e-08
1.62709e-07 3.77931e-06 -1.77117e-07
-6.92342e-07 6.90031e-06 5.72726e-07
-3.376e-06 5.33103e-06 9.79921e-08
-2.24229e-06 4.05574e-06 2.57947e-10
-1.24236e-06 2.12489e-06 -2.36597e-07
5.39871e-09 4.53013e-08 5.58781e-08
2.65032e-09 1.32775e-08 1.02954e-09
-3.51151e-09 4.73235e-09 -9.93137e-09
3.28806e-07 3.89528e-07 -2.72715e-07
9.72365e-07 1.56987e-06 -2.03114e-07
4.78547e-07 5.64751e-07 -3.79924e-07
8.82505e-10 2.91833e-08 2.99156e-08
-9.93481e-09 1.0961e-08 1.0935e-08
-2.87201e-09 1.12751e-08 2.26112e-09
1.94021e-08 1.58418e-08 3.9458e-08
2.60656e-08 6.03376e-09 4.1019e-08
1.33571e-08 3.33743e-09 2.47236e-08
1.59272e-08 1.83792e-08 3.77219e-08
3.81661e-08 3.34438e-08 8.20805e-08
2.36149e-07 3.0253e-07 -9.91117e-08
3.95787e-08 2.8535e-08 7.66441e-08
-1.46474e-07 4.67023e-06 -3.90558e-07
2.20521e-06 2.81361e-06 -2.65538e-07
2.02759e-06 3.29196e-06 -5.18006e-07
-2.46848e-08 1.88266e-07 1.73109e-07
-6.6157e-08 2.77455e-07 2.47119e-07
5.01968e-06 3.16408e-06 1.83232e-06
6.30601e-06 2.58239e-06 5.81192e-07
4.24514e-07 3.42342e-07 -4.53127e-07
1.3145e-06 5.92852e-07 -3.41349e-07
2.80048e-05 2.01606e-05 2.01232e-05
2.18868e-06 1.59021e-06 1.21219e-07
1.94131e-06 2.97926e-07 -1.29015e-07
2.692e-05 2.27185e-05 2.49386e-05
-9.74196e-07 3.31301e-07 -8.55344e-08
-1.03358e-06 3.60112e-07 -1.12964e-07
3.36747e-09 1.29013e-08 3.56716e-08
-7.56166e-10 1.79447e-08 3.89824e-08
1.02707e-06 5.49559e-07 9.60362e-08
1.00944e-06 6.89508e-07 -6.1063e-08
6.13809e-08 8.52383e-08 -2.04232e-08
4.68974e-05 2.37879e-05 -3.59103e-05
4.74896e-05 2.35824e-05 -3.9239e-05
3.50965e-08 8.78551e-08 1.61913e-08
4.44696e-08 -2.27115e-08 2.66205e-09
4.44469e-07 3.81592e-07 2.30245e-07
2.21071e-07 1.41733e-07 1.01405e-07
6.81295e-07 3.70918e-07 -2.85104e-07
8.20497e-07 3.91246e-07 -3.02913e-08
-6.88522e-09 1.18884e-07 -1.08218e-08
1.27231e-07 1.64728e-07 -6.257e-08
3.81833e-07 2.4523e-06 -8.41451e-07
1.28422e-06 9.53789e-07 5.6374e-08
7.87208e-09 -1.82575e-09 -1.20989e-08
-1.49591e-09 -5.39674e-10 1.13195e-08
2.71214e-05 7.63094e-06 8.34249e-06
2.84956e-05 9.3502e-06 1.22195e-05
-4.39438e-08 5.00954e-08 -1.03082e-07
-3.0086e-08 6.46287e-08 -1.25927e-07
1.48978e-06 1.0525e-05 2.4866e-06
1.27183e-07 1.57634e-07 -2.22813e-07
1.23976e-07 1.83415e-07 -2.40641e-07
3.89323e-08 1.46438e-07 1.67627e-07
8.53398e-08 2.36395e-07 2.64985e-07
2.50828e-06 7.58708e-07 -4.41913e-07
-3.28713e-07 6.40928e-06 1.02865e-06
-2.2819e-06 3.46274e-06 5.57848e-07
7.0696e-07 7.04768e-08 -2.70904e-07
2.38112e-07 5.70873e-07 3.49657e-07
2.98586e-07 8.89591e-07 5.21656e-07
-6.28208e-08 8.17174e-08 -1.32946e-07
-6.1677e-08 5.90596e-08 -9.7861e-08
1.2456e-07 2.38575e-07 -1.7252e-07
2.62915e-08 1.50854e-07 -1.02254e-07
-4.66762e-05 1.87542e-05 -2.5297e-05
-4.10906e-05 2.05184e-05 -2.57579e-05
2.70608e-06 1.21028e-06 1.53972e-07
2.34757e-06 1.3966e-06 -4.3125e-08
-5.162e-07 1.38684e-07 -7.63457e-09
-1.35333e-06 1.24467e-08 4.50558e-07
-9.36526e-07 7.66961e-07 -1.09483e-07
9.51242e-07 1.04425e-06 7.74449e-08
2.37055e-07 2.72746e-07 2.66723e-08
4.4594e-05 3.79813e-05 5.61492e-05
-5.7339e-06 2.83046e-06 1.53074e-06
4.95299e-05 3.63148e-05 5.77111e-05
-2.39453e-09 8.07919e-09 -9.49481e-09
-1.54437e-09 6.36107e-09 -7.11828e-09
9.61127e-05 4.74089e-05 9.83205e-05
8.58169e-05 5.10647e-05 9.77653e-05
-6.77725e-10 -4.05995e-10 1.2601e-09
-1.20934e-09 7.88595e-10 2.63594e-09
3.77302e-07 5.54991e-07 -4.50892e-08
3.16012e-07 6.13113e-07 -1.21963e-07
3.96033e-05 3.13772e-05 -3.68296e-05
4.03328e-05 3.13952e-05 -3.99082e-05
2.02102e-07 7.804e-08 -1.06655e-07
-4.02312e-09 -1.61061e-09 6.82396e-09
2.43398e-07 1.93557e-07 -1.97593e-07
9.40657e-09 1.2988e-07 -1.05106e-07
2.26122e-07 3.60256e-08 -8.25973e-08
-8.08627e-10 1.34442e-07 3.50368e-08
5.65445e-07 3.01615e-07 1.1701e-07
6.06646e-07 3.27165e-07 4.42317e-08
9.47299e-08 1.38091e-07 1.29252e-07
9.13849e-08 4.38354e-09 -5.50397e-08
1.99844e-06 3.82081e-06 -3.15186e-07
3.2753e-05 5.03821e-06 -1.71484e-06
-4.09852e-08 2.71641e-07 7.54284e-08
-7.4031e-08 3.72355e-07 1.00963e-07
2.87269e-05 4.82925e-06 -6.38939e-06
3.0702e-05 5.28042e-06 -6.53889e-06
4.80771e-08 9.41046e-08 -2.83486e-08
6.76877e-08 1.90149e-07 -3.86339e-08
-1.43706e-05 3.30486e-05 5.86253e-05
-3.27276e-05 2.9112e-05 4.67213e-05
0.000251565 1.42468e-05 4.28148e-05
0.000222545 1.81957e-05 5.09547e-05
-3.34593e-05 2.21217e-05 3.41385e-05
3.01483e-07 2.25525e-07 4.30469e-09
8.83427e-07 4.79523e-07 -1.50209e-07
1.06421e-07 1.8225e-07 -5.19571e-08
7.93818e-07 6.0869e-07 1.42912e-07
6.92623e-08 2.06926e-07 -6.26119e-08
8.21998e-08 1.74225e-07 2.59896e-09
4.19647e-07 -1.87595e-07 4.0445e-07
4.3215e-07 3.15286e-07 -2.69199e-07
3.97766e-07 4.00857e-07 -3.37688e-07
6.12133e-05 2.10613e-05 3.58051e-05
6.55248e-05 1.98559e-05 3.50374e-05
7.0047e-07 -4.31804e-08 4.85721e-07
5.14155e-07 2.95262e-07 1.28344e-08
-7.5286e-08 3.5692e-08 3.16472e-09
-1.0611e-07 5.79651e-08 2.06569e-08
1.56096e-05 4.6489e-05 6.85139e-05
-1.69906e-06 4.22781e-05 5.84403e-05
7.36169e-07 4.22028e-07 2.7031e-07
9.02389e-07 3.50413e-07 2.82788e-07
1.89857e-07 1.57364e-07 8.37993e-08
3.06803e-07 3.72281e-07 1.62978e-07
1.02136e-07 9.95717e-08 -1.32683e-07
1.15959e-07 7.76041e-08 -1.13278e-07
1.58452e-09 1.0357e-08 1.2719e-09
1.18093e-09 1.01518e-08 1.68789e-09
8.81987e-08 6.38538e-08 -9.66307e-08
3.52287e-09 2.95905e-09 -9.28825e-09
-1.25478e-09 5.10346e-09 -5.801e-09
3.3516e-05 1.46966e-05 -1.5295e-05
7.95836e-07 6.40108e-07 2.63729e-07
8.30831e-07 6.02372e-07 1.15839e-07
2.85286e-05 1.02052e-05 -1.08364e-05
3.22111e-05 1.45115e-05 -1.71695e-05
4.07141e-09 1.40742e-08 -3.02585e-08
2.97709e-10 7.60885e-09 -1.55091e-08
6.63671e-08 2.64012e-07 2.00288e-07
1.98922e-07 2.4512e-07 2.04455e-07
1.54452e-06 1.10962e-06 8.67382e-07
1.92398e-06 1.00751e-06 5.92289e-07
2.01936e-09 7.17147e-09 6.08564e-09
7.03436e-10 7.66807e-09 7.22593e-09
3.31596e-07 2.33893e-07 -5.07946e-08
6.63639e-10 3.12091e-09 5.85165e-09
-2.84064e-08 1.99979e-08 -1.05138e-08
-2.15934e-08 1.00133e-08 3.3754e-08
3.14021e-07 2.39548e-07 3.66064e-09
4.06835e-07 3.16163e-07 1.70665e-08
1.23279e-08 -1.72343e-09 2.67989e-08
-2.40781e-09 1.16525e-08 4.09389e-08
1.75509e-09 -5.43459e-09 -1.61663e-08
-1.95304e-06 2.11599e-07 6.42118e-07
5.17858e-08 -1.99325e-08 -1.88055e-09
-2.01896e-06 2.69679e-07 4.09728e-07
6.38456e-07 1.40614e-06 2.43888e-07
5.59251e-07 9.33299e-07 1.58918e-07
1.10292e-07 3.17784e-07 1.65637e-07
1.59634e-06 5.29733e-07 -2.30795e-07
4.61426e-07 2.0629e-07 1.38397e-07
4.73302e-07 2.89384e-07 1.37182e-07
1.51492e-07 3.43809e-07 1.59596e-07
-3.70289e-08 1.83535e-07 1.75779e-07
-1.69698e-08 1.94163e-07 1.70654e-07
4.20775e-08 1.16824e-08 -4.77865e-08
6.96598e-08 6.45331e-08 -5.25925e-08
2.25959e-07 1.23972e-07 -1.28453e-07
9.38284e-07 9.128e-06 1.57528e-06
6.77716e-09 9.60262e-09 3.58407e-08
1.81535e-09 8.35562e-09 2.47401e-08
1.09705e-06 7.55061e-07 -1.76614e-07
7.90738e-07 1.1075e-06 -6.56482e-09
1.82576e-06 1.16878e-06 -6.2484e-07
1.29321e-06 9.1091e-07 -4.85747e-07
1.08578e-06 1.0561e-06 3.93947e-07
3.6111e-07 3.04372e-07 -5.01964e-09
3.33227e-07 2.70219e-07 7.5373e-08
2.84849e-07 2.24285e-07 -2.13398e-07
-1.17623e-08 1.98563e-08 8.28963e-09
-7.97371e-09 2.48325e-08 -1.44826e-09
-8.39436e-09 2.43422e-08 -3.61548e-09
7.31462e-08 2.90885e-08 -7.70322e-08
1.33132e-08 5.57161e-08 -8.45786e-08
7.39604e-08 1.13486e-07 -1.81061e-07
-1.12991e-08 6.63518e-08 -7.28425e-08
1.32335e-07 2.06043e-07 1.56135e-08
3.09695e-06 5.91192e-06 -3.92839e-07
2.43851e-08 1.90296e-08 6.21769e-08
1.77186e-08 1.84947e-08 6.35066e-08
9.88792e-07 1.70022e-07 2.14077e-07
3.50665e-06 1.16321e-06 -4.37365e-08
1.42336e-07 2.5186e-07 -1.01568e-07
1.91633e-07 1.47018e-07 -9.68757e-08
1.89112e-07 5.40766e-07 3.79025e-08
1.12287e-08 9.66823e-07 7.98596e-08
2.01241e-08 7.22442e-08 7.89701e-08
1.48064e-08 7.35017e-08 7.2038e-08
2.11614e-08 2.37198e-08 -4.27881e-08
1.86006e-08 4.30055e-09 -1.72301e-08
1.53398e-08 3.40527e-09 2.2471e-08
1.75019e-08 1.23368e-08 3.86263e-08
1.49541e-08 1.79746e-08 -3.50842e-08
8.01806e-06 4.15528e-06 1.32622e-06
2.60806e-05 1.98179e-05 -1.60126e-05
-4.44825e-09 2.1122e-07 2.64063e-07
-1.11747e-07 1.71074e-07 2.06253e-07
8.27664e-07 1.63016e-06 -2.78085e-07
7.33397e-07 1.92513e-06 -2.37306e-07
0.000178877 1.51309e-05 3.98801e-05
0.000161957 1.7643e-05 4.78826e-05
2.41136e-05 1.74754e-05 -1.41703e-05
7.96392e-06 5.85684e-06 2.85201e-06
-8.4798e-07 6.96211e-07 -1.73588e-07
-8.73438e-07 5.72544e-07 -1.58796e-07
5.1859e-06 4.12153e-06 1.70772e-06
2.55049e-05 1.86718e-05 1.77992e-05
2.30188e-05 1.48546e-05 1.37594e-05
1.15321e-09 -5.91917e-09 2.07125e-08
-2.11559e-08 1.56749e-08 -1.37619e-08
-1.35432e-07 6.31026e-08 5.92179e-08
2.16864e-05 1.48919e-05 1.26411e-05
-1.98102e-07 5.85355e-08 -4.98797e-08
-1.56512e-07 7.45552e-08 2.32941e-08
-4.56049e-07 2.79401e-07 -2.0413e-07
-2.81566e-07 1.58363e-07 -1.21836e-07
-1.94866e-07 7.47702e-08 -9.99466e-09
1.00455e-06 5.41525e-06 -2.37214e-07
9.51537e-09 5.44098e-09 -6.19175e-09
9.87557e-09 7.21812e-09 -1.07386e-08
-1.42918e-08 3.31118e-08 -2.47427e-09
7.07059e-09 2.33397e-08 1.66304e-08
-5.35038e-09 1.41603e-08 9.52561e-09
-1.53352e-08 2.86103e-08 1.12042e-08
-1.88933e-08 2.48463e-08 6.13511e-09
-3.22771e-08 5.64304e-08 -5.7231e-09
4.49077e-08 3.19095e-09 -5.02759e-08
2.76776e-07 3.24463e-07 4.21396e-08
2.80469e-07 1.5741e-07 -1.09023e-07
2.04459e-07 1.93743e-07 1.96388e-08
-2.30881e-08 9.74514e-08 -1.38018e-08
9.68714e-07 4.76835e-07 -1.667e-08
-3.79121e-06 3.35064e-06 2.11055e-06
-2.58177e-06 3.44574e-06 2.10241e-06
-1.00009e-06 5.07823e-08 3.75305e-07
-8.61901e-07 -6.05048e-08 5.82088e-07
1.54237e-06 7.52728e-07 -6.00318e-08
1.40599e-06 2.58166e-07 4.85597e-07
-1.43904e-08 9.29887e-09 5.47914e-08
-4.91501e-07 -2.52647e-08 -4.78746e-07
-8.62151e-07 5.80913e-08 -4.35504e-07
-4.44675e-09 5.81939e-10 3.95476e-09
-1.09722e-08 6.59283e-09 1.26089e-08
-1.07276e-08 -7.75182e-10 -2.7027e-09
1.74612e-07 5.13386e-07 1.31297e-07
1.32429e-07 5.00001e-07 1.06798e-07
-2.7225e-08 2.21572e-08 2.05746e-08
3.47345e-07 2.44039e-07 -2.71349e-07
-6.18356e-08 2.53475e-07 1.16871e-07
-1.50774e-06 2.05018e-06 3.37417e-07
-1.43263e-06 1.97147e-06 2.76197e-07
-1.52019e-07 2.30924e-07 1.1676e-07
-1.00761e-07 1.07279e-06 -7.16959e-08
-4.0215e-08 1.13062e-06 -1.05334e-07
3.17105e-07 5.97625e-07 -4.09986e-08
-2.61949e-08 2.67999e-08 3.27826e-08
1.59272e-06 2.73719e-06 -9.86351e-07
1.85418e-06 1.90442e-06 -3.94173e-07
-1.77873e-07 2.11124e-06 -1.00859e-06
-3.2274e-08 3.71116e-09 -1.05952e-08
3.72574e-05 2.62314e-05 3.7113e-05
2.88981e-05 2.54125e-05 3.35229e-05
7.17153e-09 -2.06741e-10 -1.31507e-08
2.65032e-09 7.81625e-08 3.4051e-08
4.26994e-05 2.55684e-05 -3.25212e-05
1.46712e-08 1.33525e-07 6.42036e-08
2.40689e-08 2.774e-08 5.54805e-08
4.02368e-08 2.36046e-08 5.56292e-08
3.63156e-07 3.7879e-07 -3.1869e-07
2.6067e-08 2.3915e-08 4.36067e-08
2.71734e-06 6.34662e-06 -1.18834e-06
3.83884e-06 3.70911e-06 -4.27591e-07
1.27717e-08 6.64589e-08 8.58457e-08
-1.29987e-08 7.34813e-08 2.02942e-08
-2.50097e-08 1.36278e-08 2.8292e-08
-1.2939e-08 4.56764e-10 7.8348e-09
7.2508e-06 1.54253e-06 -4.56766e-07
9.21282e-06 2.29176e-06 -3.62401e-06
-2.43472e-06 1.96147e-06 1.30092e-07
-1.59599e-07 3.82264e-07 4.63616e-08
2.50409e-06 9.90697e-07 -2.23102e-07
-5.81522e-08 7.92899e-08 7.04412e-09
-2.37868e-08 9.27073e-08 -5.56105e-09
-1.65633e-06 9.24735e-08 6.777e-07
-1.91311e-06 4.86039e-07 -4.48858e-07
-9.22958e-07 2.21382e-07 -9.08258e-08
-1.08167e-06 1.3005e-07 -3.65555e-07
-7.46479e-08 9.98155e-08 -6.39658e-08
-4.24441e-07 3.70566e-07 5.85393e-09
4.99354e-07 1.65811e-07 -2.64586e-07
4.98392e-07 1.8462e-07 -2.12868e-07
-4.4511e-07 3.80009e-07 1.07513e-08
6.59745e-07 4.93067e-06 7.60799e-08
1.78354e-06 4.16752e-06 2.35714e-08
1.19464e-06 3.61835e-06 1.74524e-07
1.31844e-08 1.54326e-08 5.51258e-08
7.75772e-06 1.66555e-06 3.30132e-07
8.6596e-06 1.85713e-06 -1.25486e-06
-1.50796e-06 6.33865e-06 -1.10496e-06
1.26491e-08 -2.09006e-09 1.5002e-08
1.96745e-06 4.12595e-06 6.8072e-08
3.29142e-06 8.67992e-06 4.67986e-06
4.83972e-06 5.91619e-06 2.56458e-06
9.64844e-06 8.4257e-06 3.96986e-06
1.03846e-07 4.10144e-07 6.79886e-08
6.88319e-08 5.36076e-07 4.83646e-08
-2.95517e-07 1.47564e-06 1.67814e-07
-5.26976e-08 8.06791e-07 9.47715e-08
6.8344e-07 2.97624e-07 1.5226e-07
3.42602e-07 5.27512e-07 1.03126e-07
1.92687e-06 6.5041e-07 -3.21755e-08
2.59806e-06 1.09682e-06 4.17924e-07
-3.61112e-08 8.60472e-10 2.77856e-08
-3.07737e-08 -2.52314e-09 1.40054e-08
7.46965e-08 1.89964e-08 -8.20087e-08
5.86822e-08 8.7489e-09 -4.98358e-08
-2.14914e-08 6.98927e-08 1.05179e-07
1.41321e-08 5.73429e-08 1.12148e-07
-1.57916e-08 5.9186e-08 9.83431e-08
2.65363e-07 1.00891e-07 2.03932e-07
3.99821e-07 2.45325e-07 -6.90386e-08
5.68006e-07 2.67565e-07 1.42559e-07
2.31925e-08 7.60135e-08 -8.26535e-08
1.25594e-08 7.75118e-08 -7.89295e-08
-4.74743e-08 5.8078e-07 -3.35267e-07
2.78959e-08 3.35371e-07 -1.98463e-07
-3.60543e-07 3.04897e-06 -5.54574e-07
-9.67315e-07 2.17653e-06 -4.00242e-07
-1.48628e-08 6.40087e-08 -5.65169e-08
2.06707e-07 -9.46926e-09 -3.94969e-08
-2.02576e-08 5.39728e-09 1.1797e-08
1.32624e-08 3.37175e-08 -5.1863e-08
-1.57576e-06 3.82276e-06 -1.66053e-07
-7.97814e-08 3.66025e-07 -2.71792e-07
-1.41831e-07 3.16514e-07 -2.23137e-07
2.06299e-05 3.12841e-05 3.07267e-05
1.68312e-06 8.77004e-07 1.29806e-06
8.70806e-05 7.69736e-06 5.40707e-06
9.84384e-05 8.13841e-06 -7.47613e-06
7.85265e-05 8.3698e-06 -1.71045e-05
9.45451e-05 7.98281e-06 -3.71337e-06
1.84395e-06 8.5421e-07 1.27574e-06
1.9865e-05 2.53408e-05 2.40685e-05
1.90394e-05 2.51292e-05 2.19168e-05
4.57284e-08 2.96093e-08 -8.20878e-08
-2.54311e-08 5.79449e-09 -2.9479e-08
-1.28757e-08 4.78411e-09 -5.19427e-08
5.13822e-08 1.86868e-08 -6.80891e-08
2.30344e-08 8.77272e-09 -3.34827e-08
1.39416e-07 2.47196e-07 8.83684e-08
1.00853e-07 3.69903e-07 2.2389e-07
-6.27212e-07 8.30826e-08 2.29796e-07
-2.29833e-05 9.23851e-06 -8.92433e-06
-2.37419e-05 9.72247e-06 -1.0138e-05
-8.72868e-07 7.65079e-07 -2.12479e-07
2.13909e-07 2.04604e-07 -1.66376e-07
3.56921e-07 3.86716e-07 1.06683e-07
1.88026e-07 5.22347e-07 -2.76195e-07
1.76777e-07 2.16906e-07 -1.4549e-07
1.22812e-07 4.51727e-09 7.326e-08
1.00547e-07 5.35954e-08 1.29052e-07
6.29401e-08 3.2102e-08 8.29996e-08
1.18301e-06 1.58628e-06 -1.08734e-07
1.30828e-06 1.79308e-06 -1.11371e-07
-5.13102e-05 1.98539e-05 -2.94714e-05
-9.77616e-08 2.11859e-07 5.259e-09
3.25761e-08 6.11993e-09 2.09607e-08
-2.92111e-08 6.66385e-08 1.20713e-07
6.27542e-07 1.91923e-06 -2.03757e-07
6.51656e-07 1.33859e-06 -1.66225e-07
-5.52162e-08 9.54527e-08 -1.3525e-09
1.18778e-07 1.88642e-07 3.87074e-09
-1.10192e-07 1.69383e-07 -1.18358e-08
-1.65759e-05 9.47314e-07 -9.72102e-07
4.23013e-09 1.09236e-07 -5.24335e-08
-2.08941e-09 9.28327e-08 -4.57585e-08
-9.22063e-06 -3.36199e-07 -2.07274e-06
7.93401e-07 7.41767e-07 -2.64397e-07
-1.33638e-05 2.88808e-06 2.30982e-06
-1.13441e-08 1.03351e-07 1.17174e-09
1.66888e-06 6.12454e-07 1.43964e-07
1.84236e-06 4.87092e-07 4.74363e-07
2.53662e-09 6.80891e-08 -3.59216e-08
-9.65912e-09 8.00489e-08 2.3514e-08
1.14093e-07 2.05302e-07 -1.24146e-07
1.79753e-08 -1.04516e-08 -1.80945e-08
1.77356e-08 5.86e-10 -3.72602e-08
4.44808e-07 4.68157e-07 -1.28769e-07
5.55972e-07 3.93261e-07 6.63232e-08
2.70158e-06 2.15184e-06 8.65336e-07
3.26394e-05 2.83127e-05 3.62327e-05
2.50442e-05 2.80718e-05 3.3544e-05
1.6966e-08 8.02184e-10 1.35417e-09
-1.49594e-08 2.92062e-10 -1.64214e-08
2.43425e-05 2.70071e-05 3.01953e-05
3.57261e-07 9.64794e-08 1.53279e-07
1.78998e-07 1.44023e-07 1.22523e-08
-2.22996e-08 5.61003e-08 -2.24969e-09
-1.01344e-07 1.9291e-07 1.73358e-07
-9.19226e-08 2.11667e-07 1.73983e-07
-5.09843e-07 3.37021e-06 2.82177e-07
-9.49441e-08 4.11538e-08 3.81455e-08
-2.61294e-08 1.20759e-07 9.44538e-08
-4.57621e-05 3.55137e-05 -5.75482e-05
-3.27507e-05 3.10033e-05 -4.61631e-05
-6.60606e-07 3.3732e-06 2.95671e-07
1.05062e-06 1.20309e-06 -2.40408e-07
-2.3812e-07 2.85754e-06 3.76676e-07
-2.70718e-09 -3.38998e-09 -2.39742e-08
2.32344e-07 7.46155e-07 -2.10566e-07
4.07564e-06 3.59411e-05 -3.50069e-05
3.4875e-07 4.73432e-07 -6.10477e-08
9.23174e-07 6.26993e-07 6.44673e-07
6.02526e-08 1.05798e-07 -5.38265e-08
-3.3128e-08 4.76752e-08 2.95599e-08
8.92087e-09 2.24428e-09 -4.04281e-09
-3.96885e-09 3.32606e-09 -2.1107e-08
-1.7077e-05 2.07766e-05 -2.04249e-05
-3.06457e-08 6.30128e-08 9.74364e-08
1.29884e-06 4.89099e-07 -1.7804e-07
-5.35926e-09 -2.64429e-09 1.84475e-09
6.60142e-08 1.30475e-07 1.4225e-07
2.15367e-08 1.04698e-09 2.22341e-08
1.52022e-05 2.48511e-05 -1.81652e-05
2.62307e-07 8.64636e-08 -1.03631e-07
1.39683e-05 2.55408e-05 -2.09351e-05
0.000353935 5.34549e-06 -6.73248e-05
0.000333538 8.98502e-06 -7.06203e-05
1.46649e-08 9.80681e-08 9.34516e-08
0.000145757 5.04821e-05 -0.000139465
1.24814e-08 1.1059e-07 8.97254e-08
-5.23015e-08 6.85024e-08 1.32126e-08
-6.11891e-08 4.9803e-08 -5.80595e-09
4.1994e-08 1.52506e-07 1.28168e-07
1.0548e-06 1.08691e-06 -3.4564e-07
1.43118e-08 7.37179e-10 -1.00344e-08
3.4423e-07 2.69959e-07 -9.50048e-08
3.38423e-05 3.51341e-05 -3.80621e-05
3.46888e-07 1.89662e-07 7.32895e-08
3.50708e-07 1.52016e-07 1.36211e-07
3.58484e-07 1.81522e-07 1.15223e-07
3.21206e-05 2.97136e-05 4.19618e-05
-9.11901e-08 4.89293e-08 -1.83347e-08
-8.00686e-08 4.201e-08 -4.73484e-08
-1.65957e-07 1.01965e-07 -1.1648e-08
-2.95785e-07 2.54125e-07 -6.89001e-08
3.67876e-05 3.41258e-05 4.72452e-05
7.44738e-06 3.33454e-06 -7.83948e-07
2.61512e-06 4.8011e-06 -2.40251e-06
2.79717e-06 4.5403e-06 -2.10118e-06
0.000227677 9.50407e-06 -3.12054e-05
0.000214315 1.06204e-05 -2.99802e-05