# vtk DataFile Version 2.0
S, Created by Mohamad Ibrahim Cheikh
ASCII
DATASET UNSTRUCTURED_GRID
POINTS 10490 double
-223.577 20.3391 -34.7913
-223.729 23.2854 -32.7651
-130.491 -29.3065 69.2849
-194.383 -37.8827 -41.0229
-207.471 29.5082 40.0418
-235.877 27.3986 13.4741
-191.274 -39.7118 -41.0824
14.401 -3.12755 87.7999
-191.067 39.2239 -41.6651
-193.407 36.9341 -42.4289
-251.147 3.21263 -3.38096
-251.007 5.46263 -0.714989
-204.326 29.3004 -42.1202
18.598 -1.50616 87.7461
-201.229 30.364 -43.1793
-151.319 68.7421 -14.6695
-148.523 69.9526 -12.2445
241.381 21.7606 -11.7086
240.378 24.3447 -8.78222
39.486 72.9342 -47.2622
43.324 72.2231 -47.9377
45.4196 -3.19608 -86.494
49.2815 -1.50847 -86.2808
-145.563 -45.4939 -55.4994
-142.058 -46.9184 -55.4252
-191.797 -27.3639 49.9147
-189.472 -30.0422 49.4597
-64.3399 -67.8352 51.3378
-66.4814 -66.0156 53.3369
-121.227 -41.6788 -64.8662
-205.49 44.6078 24.1743
-208.432 41.872 25.9211
-64.8755 -22.5822 81.968
-61.2433 -23.9251 81.9292
44.308 4.1934 86.522
-201.398 -44.9174 27.577
-51.9169 82.6712 -24.0722
-48.7556 82.3462 -25.9243
-109.541 -78.4117 -11.2487
-105.515 -79.2425 -10.0784
-195.495 42.6409 35.3085
-200.947 -43.003 30.8392
-54.4266 -15.3171 84.5383
3.51311 8.28582 87.6004
226.254 36.0725 -13.2454
223.494 37.279 -15.4581
-146.991 22.4253 -67.7924
-143.831 23.6898 -68.1912
-167.022 -43.0232 -49.7761
-163.503 -43.478 -50.8005
-215.266 -7.15767 -44.9377
-215.166 -3.16178 -45.4522
-105.631 -17.6096 77.8963
-104.094 -21.1463 77.2672
-247.96 -12.5224 7.72452
-247.222 -12.2241 10.5722
-226.224 -18.8459 33.5141
-129.024 -40.8336 -63.5491
238.447 4.07563 -27.6836
236.191 2.11809 -30.1594
30.6726 -3.72167 -87.2638
26.7014 -1.98467 -87.4801
-224.96 -22.5396 32.2507
-47.6608 -75.8716 41.3447
-235.553 -26.7705 15.3058
-110.183 51.2271 -60.278
-237.919 -25.289 13.199
-16.8437 -1.45039 -87.7904
-20.0191 -3.99741 -87.6296
25.3025 7.55759 -87.2267
27.3535 3.73287 -87.3983
25.4423 1.73194 -87.5314
45.9665 -6.31505 -86.2869
-242.159 -16.9746 16.6262
249.587 -5.36893 -9.40942
249.11 -2.30249 -11.8808
-169.14 48.1685 43.8324
30.4616 -13.4749 -86.3066
-165.513 47.9401 45.7365
-244.371 -14.4429 14.9731
243.986 6.92804 20.1944
244.544 3.56446 20.2422
-218.53 -34.2527 26.9083
-142.145 -69.4109 21.2694
-139.63 -70.7397 18.7865
-221.095 -32.0562 27.0482
-157.97 -59.7997 33.3584
-205.037 32.4642 39.2822
-154.319 -61.3635 32.6025
21.3255 7.39313 87.3708
-119.059 18.531 75.2673
-116.39 20.6188 75.2352
25.5778 -59.0315 64.6466
29.1124 -57.6599 65.693
-134.518 55.0664 -49.9629
-136.8 52.5736 -51.8539
-177.09 57.9203 23.4461
-176.688 59.3952 19.8517
-69.7439 65.396 -53.5895
-62.7412 16.9408 -83.5169
-66.3586 16.9217 -83.1778
-66.2157 66.9548 -52.1943
124.456 57.7483 50.1276
121.022 58.3547 50.4536
-132.441 -69.847 26.7937
-132.815 -68.001 30.9875
-188.859 35.1227 46.2989
-185.112 37.2941 46.4531
-232.726 13.1745 -30.6502
-59.529 75.3767 40.3546
-60.8424 76.8885 37.1341
-231.927 16.7987 -29.6016
-175.271 -46.9574 -42.1659
-178.787 -11.2281 60.8643
-181.797 -8.37489 60.2288
-195.817 53.7551 12.6449
-198.369 52.0685 14.6692
-195.137 -6.40326 -55.1458
-196.11 -2.36329 -55.0443
-155.754 25.0648 64.387
-159.456 22.4907 64.2279
-196.21 -54.5515 -7.39869
-193.182 -56.048 -5.7965
-90.978 75.2771 -32.619
-86.9864 75.6705 -33.0392
-39.2317 -78.9672 -36.3283
-42.7326 -77.6542 -38.6039
-35.6983 20.6246 -84.6322
-119.249 -59.0769 -50.1291
-116.054 -58.3891 -51.8243
-103.565 -58.9108 54.4092
-107.46 -57.219 55.283
-176.064 46.9116 -41.811
26.9026 14.0361 -86.3619
23.7767 15.8039 -86.1686
-175.6 44.588 -44.5055
-89.4437 -39.5881 72.0924
-93.3129 -38.4488 72.1086
-1.70748 -75.0121 -46.0089
2.63155 -75.2485 -45.6159
-158.021 -33.1954 -59.8739
-154.736 -36.6315 -58.9131
25.437 73.0028 48.3257
27.9501 71.0061 51.0538
-166.567 38.8184 53.2951
-168.98 36.4456 54.0354
126.642 60.2647 46.3532
124.99 62.2381 44.2464
55.9152 20.2611 83.3709
-158.145 12.6512 67.2456
-155.544 9.85825 68.4451
-43.7064 73.7314 -45.539
70.9114 53.0943 -65.6457
-41.0052 75.3976 -43.0504
222.064 -27.8282 -30.5325
225.276 -26.0123 -29.2252
-16.8684 79.9099 -36.3809
-19.6694 78.6639 -38.841
247.477 -7.06407 13.9944
245.671 -9.07239 16.5073
-182.89 19.8578 57.0483
-181.349 22.7012 56.5881
-55.3297 68.8355 51.2919
-53.0739 70.7063 48.9872
-221.672 26.3875 -32.1195
245.289 -12.7014 14.7129
-123.335 -44.6589 -62.3476
-128.466 -46.8997 -59.3623
-126.782 -44.2466 -61.7927
-219.064 -11.0526 41.7917
-206.366 49.8807 -6.48062
-208.05 48.5183 -9.51743
-173.562 -35.1384 53.1153
-196.133 -34.8661 -42.6461
-56.8275 10.6597 85.0588
-99.2902 80.7067 4.84216
-149.825 -21.4666 67.3419
-153.216 -21.7119 66.3215
-105.449 79.8586 2.28815
-103.087 80.0871 5.38576
-208.259 -1.82486 -49.3013
-211.702 -0.425389 -47.5057
6.80977 76.751 -42.9837
8.4036 74.9978 -45.9422
-15.6328 86.1316 -17.188
-19.4435 85.4409 -19.9392
12.1675 74.4467 -46.7286
-209.317 34.909 -34.0773
-209.423 37.4846 -31.1341
-243.669 12.2915 -17.9913
-205.991 40.0947 -30.6824
-237.951 16.7306 23.0646
-240.124 13.5364 22.3945
-198.668 34.6937 41.3295
-44.0887 -51.8584 -69.4026
-47.934 -52.1763 -68.8501
-64.2526 78.5473 -32.6936
-61.1127 79.5285 -31.0157
-198.901 37.6907 38.4692
-195.377 39.9862 38.3624
193.193 51.848 -22.051
191.207 51.6127 -24.5775
-17.3619 72.9161 -48.891
-16.1021 71.1673 -51.4535
-160.711 -8.67512 67.1314
-158.256 -5.14238 68.2005
-159.178 -12.184 67.0331
-155.585 -13.9476 67.7188
-181.217 -39.3677 -46.6223
-187.068 -34.8939 -47.3504
234.201 -8.19809 31.0077
231.367 -8.83957 33.3482
-185.723 -37.8051 -45.7358
-220.423 -36.3319 -21.8074
-223.2 -33.1947 -23.2994
-74.0645 69.6969 47.0611
-199.246 43.3736 -31.6602
-202.41 40.5189 -32.9588
-78.8354 72.0187 42.384
-74.9743 71.8674 43.4842
-199.862 -47.1005 -25.2004
-196.405 -49.1627 -24.5821
-156.238 -38.5622 57.17
-155.214 -34.6038 59.9753
-162.903 56.2643 -36.4602
-159.754 58.0924 -35.2802
245.94 -16.0777 8.95236
246.756 -13.0533 10.9096
-202.19 25.1247 -45.9099
246.469 -16.6405 5.45937
-222.675 -40.7294 -3.8103
-219.564 -42.6764 -4.53602
-225.911 36.4551 -12.9115
-224.085 36.2145 -16.8755
-228.9 -34.8682 10.65
-231.376 -33.5772 7.8916
-225.472 -37.7616 9.69461
119.564 74.8268 19.8677
-172.163 -51.1023 -38.7774
115.369 75.6422 19.8168
47.9163 12.172 -85.5263
51.5033 10.7742 -85.4585
-180.221 -22.1741 57.2349
-179.939 52.3241 -32.282
-165.45 0.848463 66.2715
-168.573 2.82624 65.245
-181.019 -17.4161 58.5566
36.4521 -59.7539 63.3308
37.7864 -57.207 65.5481
-159.984 -59.9393 -31.9009
-182.767 -21.7977 -56.3846
-184.311 -18.0299 -57.0954
-11.9337 15.1036 -86.5936
-188.59 -54.9978 19.1016
-192.466 -53.1211 19.6703
-145.933 9.33893 -71.0594
-143.734 12.1436 -71.1841
-174.36 52.426 35.6857
-173.424 50.7222 38.588
-187.174 39.7219 -43.3235
-231.496 33.4975 -7.79799
-229.091 35.9715 -4.95912
-234.902 30.8723 -5.94198
241.404 7.721 23.4445
239.892 10.8369 24.1019
240.609 13.402 21.8298
-138.879 -61.83 -39.4932
-138.123 -60.1624 -42.2938
-141.495 -58.2499 -43.5866
-200.351 -41.1641 -33.6913
-218.715 20.1165 -38.5058
-52.6683 9.06997 85.5694
-56.6796 -81.1829 27.5684
-60.194 -81.4607 25.779
-152.602 56.1709 41.6861
-153.367 58.0609 38.6418
-189.412 -9.89682 -57.0404
-186.065 -8.87899 -58.5373
64.913 -8.70645 84.5713
67.8938 -7.07012 84.4373
-196.835 -37.2192 40.1907
-200.415 -34.6095 40.3564
-180.668 -48.2454 -37.6847
-174.532 -52.0916 -36.0704
-215.618 -38.5089 23.8561
-218.655 -36.4148 23.7606
-178.254 -50.9817 -35.4218
-121.527 47.9609 -60.2961
-71.1594 59.7061 59.6593
26.8711 -68.2997 54.6878
24.8079 -66.5869 56.8756
-87.1904 -8.58283 -82.0951
-84.0108 -6.27474 -82.7075
-31.0078 85.9528 -15.4404
-34.7678 85.485 -16.9799
-74.9759 60.2004 58.5806
-117.592 49.0033 -60.413
67.0874 -10.9638 -84.0998
63.3381 -11.5706 -84.374
-122.302 44.7542 -62.5282
-76.0152 64.209 -53.9793
-79.5485 64.3666 -53.162
-210.937 -46.4387 -11.8319
-207.911 -47.2773 -14.7162
-70.3843 -66.9051 51.5867
-82.3089 61.8674 -55.5607
181.003 57.5731 -20.451
187.792 54.7431 -20.7267
-57.9892 -57.7673 -63.2079
-60.25 -59.9485 -60.8749
185.029 56.5064 -18.9618
-52.2113 4.9558 85.9401
170.803 -60.9399 -21.4146
166.657 -61.8363 -22.7992
-242.161 -11.2305 20.9366
-241.443 -7.7143 23.3972
231.622 25.8611 -22.5153
229.371 25.1804 -25.8603
225.984 27.6877 -26.9257
-235.384 -18.9692 -24.5116
-234.849 -16.6286 -26.7381
-226.065 27.1648 -27.3714
-222.949 28.4625 -29.1259
-220.767 31.3774 -28.1506
-250.634 -7.29438 -0.178539
-176.043 45.3094 43.5525
58.6484 51.2815 -68.5062
59.7364 48.4532 -70.423
128.102 68.381 32.5414
131.595 68.3044 30.9571
-176.926 47.6194 40.546
-181.029 46.7558 39.3152
18.7049 -86.4179 15.268
142.031 69.3642 -21.5138
141.091 68.3966 -25.0744
23.2385 -86.1703 15.8921
181.098 -44.0244 42.315
25.6367 -86.6619 12.3796
-189.025 21.6465 -53.8603
-189.446 17.9003 -55.0417
-212.326 -45.0144 14.0795
-120.847 -47.0022 -61.2112
-24.3209 -37.272 79.2615
52.3094 18.5457 -84.0539
55.8236 16.7582 -84.1525
-25.2914 -41.1211 77.2964
-119.138 -6.52989 -77.2244
-115.757 -7.74552 -77.7397
-200.048 16.4761 50.7246
-215.148 -43.2641 14.3203
-153.421 33.0571 61.3959
-156.844 31.3697 61.222
-157.697 28.221 62.4735
-79.9677 -83.4309 0.602898
-62.9775 73.0545 -43.8344
-62.3196 71.003 -47.192
-79.8045 -83.3553 -4.02113
-209.642 -18.6812 44.8802
-59.6971 71.6283 46.6591
-205.671 -19.6736 46.6698
-191.283 -46.3884 33.3539
-190.153 -45.0076 35.9365
-195.13 47.3264 29.0274
-192.216 -42.638 37.4507
-97.6719 19.8486 78.6262
-94.0743 21.0157 78.8596
-195.846 -41.8721 35.9838
-247.68 -8.81169 12.4834
188.065 -42.0217 40.5958
184.93 -44.2656 39.9695
-127.139 75.515 7.90518
-123.497 76.0505 9.64773
48.8547 1.70256 86.3069
130.445 15.5953 -73.6038
-179.694 46.5292 -40.3208
198.595 13.1808 52.3604
200.49 9.43427 52.2853
113.34 74.8983 23.6964
109.597 75.3525 24.4014
149.555 63.7446 -30.6959
145.725 65.3553 -29.5428
-166.875 -45.6694 -47.4231
129.841 19.359 -72.8369
-209.801 43.7083 -21.0867
-206.94 46.1317 -19.3101
126.466 20.2113 -73.3307
-61.8875 -0.297308 85.2936
-59.1712 2.62105 85.4896
[...]
POINT_DATA 10490
VECTORS F double
1.27571e-08 3.02246e-08 7.63132e-09
1.27902e-07 8.98464e-08 -4.30747e-08
1.38179e-07 7.05506e-07 3.30281e-07
5.77399e-08 -7.35418e-09 -2.67047e-08
2.86795e-07 2.59437e-07 -9.25727e-09
1.82679e-07 1.95801e-07 -6.61697e-09
8.43291e-08 2.62199e-08 -7.3415e-08
-1.87719e-06 2.23983e-06 1.17479e-07
9.5914e-07 7.31506e-07 1.50145e-07
1.05037e-06 6.31369e-07 -3.65943e-08
1.2345e-08 7.42171e-08 -4.17546e-08
1.08415e-08 5.83171e-08 -2.04852e-08
9.85959e-08 3.58487e-07 1.90818e-07
-2.31968e-06 3.80786e-06 1.25554e-07
1.4032e-07 1.16249e-07 1.68476e-09
3.33463e-06 6.42148e-07 -1.20217e-06
4.31013e-06 7.59426e-07 -2.06226e-06
-1.12818e-08 2.14831e-08 1.14497e-08
-1.32374e-08 2.08003e-08 1.3296e-08
-2.7924e-05 4.88714e-06 4.68544e-06
-2.70872e-05 4.08127e-06 3.15166e-06
-3.18029e-06 1.82915e-06 -2.72053e-07
-2.89175e-06 1.33024e-06 -2.25476e-07
3.08191e-08 2.19672e-07 -1.89966e-07
5.72014e-08 2.4643e-07 -2.26557e-07
1.48419e-08 1.66817e-07 9.84337e-08
-3.9786e-10 1.4244e-07 8.63327e-08
-4.46256e-08 1.87396e-07 2.40769e-07
-1.87208e-07 1.44508e-07 1.5029e-07
2.50583e-07 2.11306e-07 -1.93108e-07
5.69796e-07 2.59283e-07 1.14546e-07
3.76662e-07 2.84869e-07 -8.93537e-08
1.23761e-07 2.95684e-06 8.26604e-07
-3.01564e-07 1.56181e-06 4.28484e-07
-1.989e-06 3.00441e-06 -2.09106e-08
1.41282e-08 2.86533e-08 5.93031e-08
9.42012e-05 1.81586e-05 3.74878e-05
0.000102941 2.14779e-05 4.45197e-05
3.93577e-08 5.59204e-10 -5.08254e-08
3.38526e-08 -2.6212e-09 -2.27837e-08
6.42872e-07 3.53087e-07 9.37268e-09
2.66451e-08 2.92321e-08 6.20185e-08
3.13151e-07 2.77811e-06 5.28036e-07
-1.49292e-06 3.57722e-06 -3.31028e-07
-2.22012e-08 1.31821e-08 -1.0532e-08
-3.76975e-08 3.40779e-08 1.54506e-08
1.28751e-06 8.7692e-07 -5.17081e-08
1.10231e-06 1.70146e-06 3.06439e-07
-5.25446e-08 1.03995e-07 -6.83013e-08
-4.58627e-08 1.17016e-07 -8.20773e-08
5.35316e-08 1.47813e-07 -5.49397e-08
7.04531e-08 1.56797e-07 -5.17403e-08
9.65921e-07 2.35937e-06 6.93731e-07
1.03159e-06 2.28146e-06 7.94534e-07
-4.0545e-08 9.87862e-08 8.03651e-10
-2.84942e-08 7.4446e-08 4.50609e-09
5.8786e-08 9.75269e-08 1.03424e-07
1.77378e-07 3.43283e-08 -6.6149e-08
-1.87398e-08 1.24415e-08 -1.79307e-08
-1.76798e-08 7.50393e-09 -1.64257e-08
-2.51228e-06 2.9685e-06 -2.34715e-07
-2.29019e-06 3.87299e-06 -1.7345e-07
1.27315e-08 8.73276e-08 7.19049e-08
-3.84695e-08 5.44966e-08 9.45781e-08
-1.13189e-08 1.25377e-08 6.02992e-10
1.29018e-05 6.21868e-06 2.39758e-06
-2.12069e-08 3.7142e-08 2.43639e-08
-4.51679e-07 4.84613e-06 -6.94538e-08
1.64574e-07 3.77177e-06 -1.76662e-07
-7.12932e-07 6.84226e-06 5.67514e-07
-3.35484e-06 5.29753e-06 9.77131e-08
-2.23726e-06 4.03878e-06 2.97702e-10
-1.24299e-06 2.1138e-06 -2.35772e-07
5.43875e-09 4.52067e-08 5.58555e-08
2.62189e-09 1.30463e-08 1.06514e-09
-3.46888e-09 4.56294e-09 -9.79204e-09
3.32132e-07 3.86989e-07 -2.68359e-07
9.64075e-07 1.56602e-06 -2.02841e-07
4.81521e-07 5.61927e-07 -3.75657e-07
9.27964e-10 2.91048e-08 2.99288e-08
-9.83534e-09 1.07716e-08 1.08547e-08
-2.85109e-09 1.10924e-08 2.26362e-09
1.9478e-08 1.57993e-08 3.94783e-08
2.61636e-08 6.0645e-09 4.11991e-08
1.34222e-08 3.36157e-09 2.4872e-08
1.60028e-08 1.83309e-08 3.77408e-08
3.83024e-08 3.34925e-08 8.22461e-08
2.35941e-07 3.01022e-07 -9.80001e-08
3.97179e-08 2.85848e-08 7.68193e-08
-1.75621e-07 4.68729e-06 -3.91382e-07
2.2024e-06 2.80116e-06 -2.63133e-07
2.02744e-06 3.27615e-06 -5.13854e-07
-2.47692e-08 1.8903e-07 1.73811e-07
-6.63879e-08 2.78528e-07 2.4807e-07
4.97488e-06 3.12214e-06 1.80119e-06
6.21574e-06 2.55794e-06 5.85795e-07
4.24716e-07 3.40414e-07 -4.48191e-07
1.30647e-06 5.88634e-07 -3.37509e-07
2.76587e-05 1.99534e-05 1.99423e-05
2.16433e-06 1.63148e-06 1.31869e-07
1.9175e-06 3.4262e-07 -1.17589e-07
2.65911e-05 2.24844e-05 2.47128e-05
-9.72222e-07 3.23074e-07 -7.66631e-08
-1.0316e-06 3.53869e-07 -1.0633e-07
3.43192e-09 1.29439e-08 3.58209e-08
-6.75016e-10 1.79945e-08 3.91344e-08
1.02288e-06 5.46886e-07 9.59668e-08
1.00624e-06 6.84493e-07 -5.86128e-08
6.11109e-08 8.49444e-08 -2.02985e-08
4.67103e-05 2.34709e-05 -3.54043e-05
4.72654e-05 2.32702e-05 -3.8701e-05
3.49289e-08 8.75456e-08 1.61756e-08
4.43556e-08 -2.26924e-08 2.69843e-09
4.44294e-07 3.8114e-07 2.30096e-07
2.21125e-07 1.41452e-07 1.01386e-07
6.77349e-07 3.68766e-07 -2.83458e-07
8.15811e-07 3.88993e-07 -3.00675e-08
-6.85106e-09 1.1836e-07 -1.07763e-08
1.26579e-07 1.63966e-07 -6.22525e-08
3.82349e-07 2.43639e-06 -8.3521e-07
1.27703e-06 9.51322e-07 5.50354e-08
7.89341e-09 -1.84654e-09 -1.20101e-08
-1.46547e-09 -5.58836e-10 1.13878e-08
2.69834e-05 7.5707e-06 8.25727e-06
2.83521e-05 9.29752e-06 1.21553e-05
-4.38577e-08 4.99888e-08 -1.02862e-07
-2.99932e-08 6.45109e-08 -1.25703e-07
1.43728e-06 1.04126e-05 2.4633e-06
1.26922e-07 1.57124e-07 -2.22135e-07
1.23755e-07 1.82775e-07 -2.39857e-07
3.91703e-08 1.46707e-07 1.67973e-07
8.56297e-08 2.36736e-07 2.65405e-07
2.48455e-06 7.52814e-07 -4.36259e-07
-3.63765e-07 6.35404e-06 1.01883e-06
-2.28149e-06 3.46234e-06 5.5794e-07
7.07509e-07 7.42714e-08 -2.67363e-07
2.39502e-07 5.71417e-07 3.50161e-07
2.99661e-07 8.88981e-07 5.21486e-07
-6.27527e-08 8.15462e-08 -1.32666e-07
-6.16071e-08 5.89729e-08 -9.77172e-08
1.24205e-07 2.37589e-07 -1.71858e-07
2.63114e-08 1.50218e-07 -1.01865e-07
-4.63039e-05 1.85851e-05 -2.50913e-05
-4.08234e-05 2.03191e-05 -2.55238e-05
2.69164e-06 1.20311e-06 1.53624e-07
2.33631e-06 1.38739e-06 -4.12666e-08
-5.1798e-07 1.32787e-07 6.24844e-10
-1.34093e-06 9.26202e-09 4.50738e-07
-9.64413e-07 8.02096e-07 -1.15741e-07
9.49817e-07 1.03949e-06 7.79137e-08
2.39031e-07 2.71844e-07 2.73511e-08
4.48071e-05 3.73238e-05 5.51651e-05
-5.68058e-06 2.72173e-06 1.45005e-06
5.01696e-05 3.55119e-05 5.63441e-05
-2.35758e-09 7.96103e-09 -9.3565e-09
-1.52482e-09 6.25618e-09 -7.00715e-09
0.000100075 4.64455e-05 9.63355e-05
8.91001e-05 5.02987e-05 9.63449e-05
-6.89223e-10 -4.81183e-10 1.25004e-09
-1.21787e-09 7.16926e-10 2.61284e-09
3.76929e-07 5.53322e-07 -4.46608e-08
3.16729e-07 6.10837e-07 -1.20775e-07
3.96253e-05 3.12042e-05 -3.66438e-05
4.06325e-05 3.1127e-05 -3.95379e-05
2.01036e-07 7.7696e-08 -1.06037e-07
-4.03446e-09 -1.6662e-09 6.79659e-09
2.42567e-07 1.92761e-07 -1.96821e-07
9.59091e-09 1.29298e-07 -1.04695e-07
2.25376e-07 3.5835e-08 -8.22727e-08
-6.3522e-10 1.34221e-07 3.50905e-08
5.61747e-07 2.99688e-07 1.16619e-07
6.02965e-07 3.252e-07 4.40793e-08
9.49961e-08 1.38044e-07 1.29327e-07
9.10922e-08 4.31758e-09 -5.48208e-08
2.02835e-06 3.81321e-06 -3.11967e-07
3.2282e-05 4.96924e-06 -1.78071e-06
-4.05303e-08 2.7155e-07 7.55228e-08
-7.34923e-08 3.71906e-07 1.00966e-07
2.83132e-05 4.75483e-06 -6.19793e-06
3.02801e-05 5.19866e-06 -6.34613e-06
4.78663e-08 9.37548e-08 -2.82252e-08
6.73751e-08 1.89312e-07 -3.84553e-08
-1.17565e-05 3.38166e-05 6.01545e-05
-3.18565e-05 2.96104e-05 4.76238e-05
0.000247298 1.36148e-05 4.0686e-05
0.000219623 1.72113e-05 4.75297e-05
-3.27875e-05 2.235e-05 3.45622e-05
3.0012e-07 2.24419e-07 4.19667e-09
8.77907e-07 4.76542e-07 -1.49241e-07
1.05972e-07 1.81557e-07 -5.16846e-08
7.89e-07 6.04753e-07 1.41743e-07
6.91315e-08 2.06296e-07 -6.23237e-08
8.20316e-08 1.73695e-07 2.69665e-09
4.1838e-07 -1.86164e-07 4.02499e-07
4.30818e-07 3.14514e-07 -2.68516e-07
3.96555e-07 3.99745e-07 -3.36738e-07
6.06822e-05 2.07279e-05 3.51982e-05
6.50087e-05 1.95246e-05 3.43811e-05
6.9776e-07 -4.25135e-08 4.83345e-07
5.12481e-07 2.9395e-07 1.31564e-08
-7.32272e-08 3.46987e-08 3.03726e-09
-1.03302e-07 5.64245e-08 2.00964e-08
1.7616e-05 4.67697e-05 6.89867e-05
-5.36938e-07 4.24355e-05 5.87148e-05
7.35822e-07 4.21007e-07 2.70071e-07
9.01731e-07 3.49507e-07 2.82529e-07
1.90645e-07 1.57006e-07 8.39627e-08
3.07349e-07 3.71501e-07 1.62969e-07
1.018e-07 9.91881e-08 -1.32199e-07
1.15546e-07 7.72793e-08 -1.12837e-07
1.58165e-09 1.02214e-08 1.2412e-09
1.18644e-09 9.99685e-09 1.64371e-09
8.7913e-08 6.35857e-08 -9.62675e-08
3.51719e-09 2.90712e-09 -9.19561e-09
-1.24625e-09 5.04298e-09 -5.72466e-09
3.31916e-05 1.45924e-05 -1.52157e-05
7.91401e-07 6.35925e-07 2.61433e-07
8.25844e-07 5.98575e-07 1.14935e-07
2.82629e-05 1.01502e-05 -1.0811e-05
3.19101e-05 1.44146e-05 -1.70874e-05
4.06157e-09 1.39988e-08 -3.01079e-08
3.09503e-10 7.56109e-09 -1.54244e-08
6.66374e-08 2.64014e-07 2.00378e-07
1.99272e-07 2.45081e-07 2.04543e-07
1.53985e-06 1.10345e-06 8.60478e-07
1.91857e-06 1.001e-06 5.84614e-07
1.97578e-09 7.08276e-09 6.07851e-09
6.69108e-10 7.56644e-09 7.20509e-09
3.3002e-07 2.32934e-07 -5.04688e-08
6.21009e-10 3.04489e-09 5.85757e-09
-2.83415e-08 1.99467e-08 -1.04355e-08
-2.15394e-08 9.97922e-09 3.37566e-08
3.12489e-07 2.38456e-07 3.86447e-09
4.04729e-07 3.14611e-07 1.71675e-08
1.23574e-08 -1.72768e-09 2.68629e-08
-2.36326e-09 1.16258e-08 4.09872e-08
1.78428e-09 -5.43597e-09 -1.60895e-08
-1.90168e-06 1.99427e-07 6.50081e-07
5.16646e-08 -1.99244e-08 -1.82644e-09
-1.96648e-06 2.51978e-07 4.39859e-07
6.20611e-07 1.39449e-06 2.4103e-07
5.42763e-07 9.26069e-07 1.56801e-07
1.10495e-07 3.17346e-07 1.65544e-07
1.58421e-06 5.26941e-07 -2.27018e-07
4.61482e-07 2.05967e-07 1.38417e-07
4.73334e-07 2.88861e-07 1.37214e-07
1.51801e-07 3.4334e-07 1.5957e-07
-3.72123e-08 1.84272e-07 1.76486e-07
-1.71384e-08 1.94954e-07 1.71355e-07
4.20087e-08 1.16131e-08 -4.76126e-08
6.94582e-08 6.42784e-08 -5.24135e-08
2.25024e-07 1.23429e-07 -1.27912e-07
9.00022e-07 9.07725e-06 1.56806e-06
6.83685e-09 9.60618e-09 3.59224e-08
1.87157e-09 8.35363e-09 2.48018e-08
1.09051e-06 7.51297e-07 -1.75454e-07
7.89975e-07 1.09847e-06 -7.89943e-09
1.81113e-06 1.15758e-06 -6.17202e-07
1.28672e-06 9.03302e-07 -4.79348e-07
1.07921e-06 1.0488e-06 3.90762e-07
3.59456e-07 3.03036e-07 -4.73174e-09
3.31711e-07 2.69023e-07 7.52879e-08
2.8355e-07 2.23301e-07 -2.12203e-07
-1.1639e-08 1.95626e-08 8.23004e-09
-7.86855e-09 2.44828e-08 -1.41884e-09
-8.25508e-09 2.39616e-08 -3.57134e-09
7.29969e-08 2.8963e-08 -7.67711e-08
1.33255e-08 5.55142e-08 -8.42958e-08
7.37738e-08 1.13092e-07 -1.80459e-07
-1.1242e-08 6.61006e-08 -7.25781e-08
1.31713e-07 2.05073e-07 1.55406e-08
3.1256e-06 5.90063e-06 -3.89908e-07
2.45216e-08 1.91214e-08 6.24808e-08
1.78286e-08 1.85899e-08 6.38414e-08
1.00043e-06 1.7545e-07 2.11975e-07
3.47513e-06 1.15181e-06 -4.20053e-08
1.41718e-07 2.50728e-07 -1.01119e-07
1.90781e-07 1.46364e-07 -9.64441e-08
1.84365e-07 5.44651e-07 3.87451e-08
7.07638e-09 9.70446e-07 8.05599e-08
2.02345e-08 7.22192e-08 7.90117e-08
1.49106e-08 7.34619e-08 7.20664e-08
2.11358e-08 2.35889e-08 -4.26048e-08
1.85892e-08 4.23228e-09 -1.71236e-08
1.54003e-08 3.38964e-09 2.2513e-08
1.75575e-08 1.2307e-08 3.86422e-08
1.49512e-08 1.78641e-08 -3.49233e-08
7.90775e-06 4.1195e-06 1.32543e-06
2.60882e-05 1.9668e-05 -1.58737e-05
-4.47945e-09 2.12098e-07 2.65159e-07
-1.12241e-07 1.71764e-07 2.07086e-07
8.23395e-07 1.62306e-06 -2.76754e-07
7.27962e-07 1.91913e-06 -2.36128e-07
0.000176323 1.47195e-05 3.85864e-05
0.000159689 1.71447e-05 4.62813e-05
2.41163e-05 1.73136e-05 -1.40135e-05
7.86518e-06 5.76223e-06 2.79962e-06
-8.44598e-07 6.89766e-07 -1.72411e-07
-8.70489e-07 5.69888e-07 -1.58156e-07
5.12468e-06 4.08529e-06 1.69681e-06
2.52397e-05 1.84267e-05 1.75671e-05
2.27898e-05 1.46855e-05 1.36055e-05
1.17139e-09 -5.94618e-09 2.07811e-08
-2.11102e-08 1.56136e-08 -1.36441e-08
-1.35629e-07 6.33047e-08 5.94472e-08
2.14423e-05 1.47253e-05 1.25077e-05
-1.92833e-07 5.69875e-08 -4.85277e-08
-1.52247e-07 7.25577e-08 2.27504e-08
-4.54743e-07 2.78717e-07 -2.03649e-07
-2.80767e-07 1.58039e-07 -1.21613e-07
-1.89639e-07 7.27948e-08 -9.6346e-09
1.02346e-06 5.40246e-06 -2.35414e-07
9.51542e-09 5.40013e-09 -6.07509e-09
9.8865e-09 7.18249e-09 -1.06314e-08
-1.41838e-08 3.29843e-08 -2.39075e-09
7.14379e-09 2.32237e-08 1.66835e-08
-5.12299e-09 1.37907e-08 9.38742e-09
-1.49084e-08 2.79743e-08 1.10492e-08
-1.83855e-08 2.42499e-08 6.0429e-09
-3.21804e-08 5.62118e-08 -5.66949e-09
4.47536e-08 3.141e-09 -5.00785e-08
2.75449e-07 3.22963e-07 4.19972e-08
2.7911e-07 1.56738e-07 -1.08406e-07
2.03537e-07 1.92857e-07 1.95373e-08
-2.30173e-08 9.7154e-08 -1.37099e-08
9.65482e-07 4.72791e-07 -1.40699e-08
-3.84852e-06 3.28643e-06 2.05672e-06
-2.63005e-06 3.38761e-06 2.05763e-06
-9.8672e-07 4.66859e-08 3.7746e-07
-8.51051e-07 -6.1952e-08 5.79619e-07
1.53362e-06 7.46258e-07 -5.71298e-08
1.39838e-06 2.56984e-07 4.82701e-07
-1.44372e-08 9.3529e-09 5.51066e-08
-4.75263e-07 -2.47276e-08 -4.63882e-07
-8.32063e-07 5.5485e-08 -4.21877e-07
-4.46104e-09 6.0471e-10 4.07942e-09
-1.09847e-08 6.51034e-09 1.25293e-08
-1.07475e-08 -7.58174e-10 -2.58598e-09
1.73183e-07 5.10246e-07 1.30655e-07
1.31919e-07 4.96945e-07 1.06023e-07
-2.71662e-08 2.21444e-08 2.06441e-08
3.46126e-07 2.43075e-07 -2.70312e-07
-6.05732e-08 2.54555e-07 1.17426e-07
-1.50077e-06 2.02959e-06 3.3346e-07
-1.42585e-06 1.95169e-06 2.72857e-07
-1.51444e-07 2.32016e-07 1.17363e-07
-9.87713e-08 1.06642e-06 -7.15182e-08
-3.8286e-08 1.12464e-06 -1.05073e-07
3.16564e-07 5.95272e-07 -4.05026e-08
-2.6138e-08 2.67821e-08 3.28364e-08
1.58921e-06 2.71161e-06 -9.73793e-07
1.84406e-06 1.89465e-06 -3.92404e-07
-1.69554e-07 2.1004e-06 -1.00121e-06
-3.22951e-08 3.71403e-09 -1.04027e-08
3.70662e-05 2.58558e-05 3.65713e-05
2.88256e-05 2.50518e-05 3.30313e-05
7.26514e-09 -2.26684e-10 -1.29562e-08
2.80069e-09 7.80149e-08 3.40751e-08
4.24975e-05 2.53156e-05 -3.22061e-05
1.48063e-08 1.33407e-07 6.4227e-08
2.41656e-08 2.77435e-08 5.55527e-08
4.03501e-08 2.35996e-08 5.56963e-08
3.61899e-07 3.76661e-07 -3.16262e-07
2.61672e-08 2.39058e-08 4.36604e-08
2.73135e-06 6.28303e-06 -1.1707e-06
3.81666e-06 3.75846e-06 -4.44185e-07
1.28765e-08 6.64471e-08 8.59007e-08
-1.29236e-08 7.32796e-08 2.03371e-08
-2.50307e-08 1.35604e-08 2.82331e-08
-1.29503e-08 3.95195e-10 7.77299e-09
7.21275e-06 1.53332e-06 -4.44858e-07
9.16194e-06 2.27752e-06 -3.59452e-06
-2.43986e-06 1.97587e-06 1.3011e-07
-1.58356e-07 3.73786e-07 4.48369e-08
2.48001e-06 9.81775e-07 -2.20216e-07
-5.75434e-08 7.80751e-08 7.0667e-09
-2.34422e-08 9.14261e-08 -5.49139e-09
-1.62931e-06 8.27539e-08 6.92566e-07
-1.87702e-06 4.6145e-07 -3.92804e-07
-8.94436e-07 2.13501e-07 -9.01744e-08
-1.04743e-06 1.25249e-07 -3.55492e-07
-7.43953e-08 9.94402e-08 -6.37119e-08
-4.19499e-07 3.62215e-07 4.71534e-09
4.96772e-07 1.65042e-07 -2.63029e-07
4.95767e-07 1.83736e-07 -2.11532e-07
-4.39893e-07 3.71129e-07 9.40792e-09
6.61933e-07 4.91845e-06 7.5945e-08
1.77633e-06 4.16464e-06 2.28401e-08
1.18999e-06 3.62757e-06 1.74222e-07
1.32153e-08 1.54277e-08 5.51603e-08
7.69103e-06 1.65135e-06 3.19721e-07
8.58131e-06 1.83957e-06 -1.23196e-06
-1.49841e-06 6.35695e-06 -1.10825e-06
1.26806e-08 -2.09508e-09 1.50408e-08
1.96395e-06 4.13624e-06 6.73713e-08
3.33971e-06 8.5581e-06 4.60029e-06
4.81656e-06 5.90329e-06 2.56171e-06
9.52447e-06 8.30822e-06 3.91419e-06
1.04245e-07 4.09787e-07 6.80952e-08
6.96405e-08 5.34776e-07 4.85665e-08
-2.98289e-07 1.47868e-06 1.68368e-07
-5.61619e-08 8.10644e-07 9.55474e-08
6.79956e-07 2.96138e-07 1.51296e-07
3.43068e-07 5.26161e-07 1.03299e-07
1.917e-06 6.47038e-07 -3.20697e-08
2.57724e-06 1.08558e-06 4.09721e-07
-3.62571e-08 8.57643e-10 2.78805e-08
-3.09015e-08 -2.53311e-09 1.40647e-08
7.46038e-08 1.88784e-08 -8.16973e-08
5.86378e-08 8.66648e-09 -4.96367e-08
-2.15333e-08 7.00957e-08 1.05489e-07
1.42471e-08 5.75119e-08 1.12496e-07
-1.57601e-08 5.93521e-08 9.86368e-08
2.64508e-07 1.00548e-07 2.03338e-07
3.98177e-07 2.44106e-07 -6.80471e-08
5.65226e-07 2.66199e-07 1.42084e-07
2.31452e-08 7.57193e-08 -8.23537e-08
1.25297e-08 7.72202e-08 -7.86438e-08
-4.6559e-08 5.78317e-07 -3.33961e-07
2.84069e-08 3.34265e-07 -1.97904e-07
-3.76767e-07 3.07477e-06 -5.58662e-07
-9.83821e-07 2.20736e-06 -4.05835e-07
-1.47969e-08 6.37647e-08 -5.63079e-08
2.05974e-07 -9.14775e-09 -3.94301e-08
-2.02133e-08 5.23287e-09 1.17093e-08
1.3239e-08 3.35724e-08 -5.16676e-08
-1.55874e-06 3.83572e-06 -1.66542e-07
-7.96411e-08 3.65064e-07 -2.71074e-07
-1.41518e-07 3.1568e-07 -2.22545e-07
2.05866e-05 3.09482e-05 3.04105e-05
1.67254e-06 8.70584e-07 1.28599e-06
8.62851e-05 7.61775e-06 5.5615e-06
9.746e-05 8.04076e-06 -7.12313e-06
7.80177e-05 8.26434e-06 -1.65775e-05
9.37059e-05 7.88149e-06 -3.42824e-06
1.83686e-06 8.48491e-07 1.25763e-06
1.98165e-05 2.51574e-05 2.39045e-05
1.89377e-05 2.49604e-05 2.17851e-05
4.56124e-08 2.948e-08 -8.18017e-08
-2.5387e-08 5.77313e-09 -2.9273e-08
-1.28127e-08 4.76701e-09 -5.17822e-08
5.12497e-08 1.85851e-08 -6.78388e-08
2.29832e-08 8.70237e-09 -3.33264e-08
1.38757e-07 2.46026e-07 8.79511e-08
1.00552e-07 3.67755e-07 2.22412e-07
-6.16437e-07 8.0424e-08 2.28684e-07
-2.29341e-05 9.24977e-06 -8.94751e-06
-2.37618e-05 9.65792e-06 -1.0058e-05
-8.69186e-07 7.64086e-07 -2.12189e-07
2.13115e-07 2.03791e-07 -1.65731e-07
3.5654e-07 3.85375e-07 1.0668e-07
1.87434e-07 5.1997e-07 -2.75016e-07
1.76214e-07 2.16053e-07 -1.44957e-07
1.23062e-07 4.51288e-09 7.33881e-08
1.00759e-07 5.36627e-08 1.29257e-07
6.31096e-08 3.21489e-08 8.31616e-08
1.1765e-06 1.57812e-06 -1.08098e-07
1.30165e-06 1.78399e-06 -1.10766e-07
-5.06235e-05 1.95861e-05 -2.9108e-05
-9.59646e-08 2.06951e-07 4.9854e-09
3.2734e-08 6.14446e-09 2.10532e-08
-2.91967e-08 6.68173e-08 1.21065e-07
6.2393e-07 1.90794e-06 -2.02522e-07
6.48613e-07 1.33559e-06 -1.65674e-07
-5.41107e-08 9.30004e-08 -1.42716e-09
1.18266e-07 1.87906e-07 3.94498e-09
-1.08046e-07 1.6554e-07 -1.16859e-08
-1.63645e-05 5.77796e-07 -1.52191e-06
3.88877e-09 1.07587e-07 -5.17063e-08
-2.35175e-09 9.14609e-08 -4.51478e-08
-9.16142e-06 -5.48101e-07 -2.39881e-06
7.89729e-07 7.37151e-07 -2.62044e-07
-1.31379e-05 2.54384e-06 1.8281e-06
-1.13076e-08 1.03032e-07 1.29029e-09
1.65597e-06 6.0873e-07 1.41315e-07
1.82972e-06 4.83528e-07 4.71387e-07
2.51675e-09 6.78495e-08 -3.57124e-08
-9.58601e-09 7.98441e-08 2.35453e-08
1.13759e-07 2.04567e-07 -1.23549e-07
1.79412e-08 -1.0464e-08 -1.7987e-08
1.77025e-08 5.46866e-10 -3.71076e-08
4.43342e-07 4.6596e-07 -1.2771e-07
5.53936e-07 3.9145e-07 6.63991e-08
2.68265e-06 2.13293e-06 8.55916e-07
3.2542e-05 2.79306e-05 3.57385e-05
2.49657e-05 2.7684e-05 3.30811e-05
1.69951e-08 7.99361e-10 1.53534e-09
-1.50135e-08 2.80657e-10 -1.62798e-08
2.44019e-05 2.67093e-05 2.9852e-05
3.56275e-07 9.60357e-08 1.52954e-07
1.78716e-07 1.43377e-07 1.2505e-08
-2.21902e-08 5.59556e-08 -2.156e-09
-1.01665e-07 1.93651e-07 1.74021e-07
-9.20736e-08 2.12495e-07 1.74659e-07
-5.01203e-07 3.37364e-06 2.82967e-07
-9.52097e-08 4.08367e-08 3.80827e-08
-2.60038e-08 1.2082e-07 9.45564e-08
-4.44113e-05 3.53174e-05 -5.73784e-05
-3.18017e-05 3.10522e-05 -4.63323e-05
-6.52155e-07 3.37452e-06 2.96304e-07
1.04883e-06 1.19691e-06 -2.38236e-07
-2.33112e-07 2.86109e-06 3.77465e-07
-2.69865e-09 -3.44203e-09 -2.3785e-08
2.43346e-07 7.45942e-07 -2.07684e-07
4.4214e-06 3.58823e-05 -3.49708e-05
3.53844e-07 4.80066e-07 -6.18526e-08
9.17576e-07 6.22674e-07 6.39293e-07
5.99996e-08 1.05406e-07 -5.35536e-08
-3.30169e-08 4.75397e-08 2.95983e-08
8.90152e-09 2.22329e-09 -3.93525e-09
-3.98828e-09 3.3005e-09 -2.09911e-08
-1.74036e-05 2.08264e-05 -2.04781e-05
-3.05437e-08 6.28355e-08 9.72876e-08
1.28947e-06 4.86099e-07 -1.75014e-07
-5.38166e-09 -2.65351e-09 1.8653e-09
6.62294e-08 1.30556e-07 1.42402e-07
2.16105e-08 1.01902e-09 2.22656e-08
1.50796e-05 2.48055e-05 -1.81537e-05
2.61188e-07 8.63761e-08 -1.03338e-07
1.40451e-05 2.547e-05 -2.08847e-05
0.000348244 4.89697e-06 -6.46082e-05
0.000326845 8.50065e-06 -6.84348e-05
1.47779e-08 9.80302e-08 9.34813e-08
0.000150892 4.81466e-05 -0.000133512
1.26113e-08 1.1054e-07 8.97554e-08
-5.09454e-08 6.67065e-08 1.28582e-08
-5.96078e-08 4.84819e-08 -5.67447e-09
4.20981e-08 1.52415e-07 1.28161e-07
1.04831e-06 1.08006e-06 -3.43477e-07
1.43113e-08 6.81065e-10 -9.94353e-09
3.42979e-07 2.68618e-07 -9.40244e-08
3.40656e-05 3.49842e-05 -3.79096e-05
3.45601e-07 1.88791e-07 7.33024e-08
3.49403e-07 1.51348e-07 1.35827e-07
3.57066e-07 1.80676e-07 1.14953e-07
3.22315e-05 2.92234e-05 4.12346e-05
-8.88738e-08 4.76978e-08 -1.77924e-08
-7.79972e-08 4.09029e-08 -4.62815e-08
-1.64482e-07 9.97865e-08 -1.05701e-08
-2.92965e-07 2.50238e-07 -6.72026e-08
3.68545e-05 3.35859e-05 4.6486e-05
7.4257e-06 3.37432e-06 -8.15518e-07
2.66121e-06 4.74858e-06 -2.36102e-06
2.85787e-06 4.51681e-06 -2.0758e-06
0.000224246 9.25882e-06 -3.05713e-05