# vtk DataFile Version 2.0
S, Created by Mohamad Ibrahim Cheikh
ASCII
DATASET UNSTRUCTURED_GRID
POINTS 10490 double
-223.577 20.3391 -34.7913
-223.729 23.2854 -32.7652
-130.491 -29.3058 69.2853
-194.383 -37.8827 -41.0229
-207.471 29.5084 40.0418
-235.877 27.3988 13.4741
-191.274 -39.7118 -41.0824
14.3991 -3.1253 87.8
-191.066 39.2246 -41.6649
-193.406 36.9348 -42.4289
-251.147 3.21271 -3.381
-251.007 5.46269 -0.71501
-204.326 29.3008 -42.1201
18.5957 -1.50234 87.7463
-201.229 30.3641 -43.1793
-151.315 68.7427 -14.6707
-148.519 69.9533 -12.2465
241.381 21.7607 -11.7086
240.378 24.3447 -8.78221
39.4581 72.939 -47.2576
43.297 72.2272 -47.9346
45.4165 -3.19425 -86.4943
49.2786 -1.50715 -86.2811
-145.563 -45.4937 -55.4996
-142.058 -46.9181 -55.4255
-191.797 -27.3637 49.9148
-189.472 -30.042 49.4598
-64.3399 -67.8351 51.338
-66.4816 -66.0155 53.337
-121.227 -41.6786 -64.8664
-205.489 44.608 24.1744
-208.431 41.8723 25.921
-64.8753 -22.5793 81.9688
-61.2436 -23.9235 81.9296
44.306 4.19642 86.522
-201.398 -44.9174 27.577
-51.8232 82.6892 -24.0351
-48.6533 82.3675 -25.8803
-109.541 -78.4117 -11.2488
-105.514 -79.2425 -10.0784
-195.494 42.6413 35.3085
-200.947 -43.0029 30.8393
-54.4263 -15.3143 84.5388
3.51162 8.28941 87.6001
226.254 36.0726 -13.2454
223.493 37.2791 -15.4581
-146.99 22.4262 -67.7925
-143.829 23.6915 -68.1909
-167.022 -43.0231 -49.7762
-163.503 -43.4778 -50.8006
-215.266 -7.15752 -44.9378
-215.166 -3.16162 -45.4522
-105.63 -17.6072 77.897
-104.093 -21.1441 77.268
-247.96 -12.5223 7.72452
-247.222 -12.224 10.5722
-226.224 -18.8458 33.5142
-129.024 -40.8336 -63.5492
238.447 4.07565 -27.6836
236.191 2.1181 -30.1594
30.6701 -3.71871 -87.264
26.6991 -1.9808 -87.4803
-224.96 -22.5395 32.2507
-47.6608 -75.8716 41.3448
-235.553 -26.7705 15.3058
-110.17 51.2333 -60.2756
-237.919 -25.2889 13.199
-16.8442 -1.44555 -87.7905
-20.019 -3.99364 -87.6298
25.3018 7.5644 -87.2262
27.3501 3.73815 -87.3982
25.4401 1.73597 -87.5314
45.9653 -6.31294 -86.2872
-242.159 -16.9746 16.6263
249.587 -5.36891 -9.40942
249.11 -2.30249 -11.8808
-169.139 48.1689 43.8322
30.4625 -13.4733 -86.3068
-165.512 47.9406 45.7361
-244.371 -14.4429 14.9731
243.986 6.92805 20.1944
244.544 3.56447 20.2422
-218.53 -34.2527 26.9083
-142.145 -69.4109 21.2694
-139.63 -70.7397 18.7865
-221.095 -32.0562 27.0482
-157.97 -59.7997 33.3585
-205.037 32.4645 39.2821
-154.319 -61.3635 32.6026
21.3253 7.39783 87.3704
-119.056 18.5338 75.267
-116.388 20.6221 75.2347
25.5778 -59.0313 64.6468
29.1123 -57.6596 65.6932
-134.513 55.0695 -49.9611
-136.794 52.5762 -51.8533
-177.09 57.9206 23.4457
-176.687 59.3957 19.8514
-69.7164 65.4159 -53.5696
-62.739 16.9424 -83.5167
-66.3567 16.922 -83.1779
-66.1893 66.9772 -52.1697
124.455 57.7486 50.1276
121.021 58.355 50.4535
-132.441 -69.847 26.7937
-132.815 -68.0009 30.9876
-188.858 35.1233 46.2989
-185.111 37.2948 46.4531
-232.726 13.1746 -30.6502
-59.4824 75.4 40.3194
-60.7953 76.9116 37.0957
-231.927 16.7988 -29.6016
-175.271 -46.9574 -42.1659
-178.787 -11.2277 60.8645
-181.797 -8.37475 60.2289
-195.816 53.7555 12.6446
-198.369 52.0689 14.6691
-195.137 -6.40314 -55.1458
-196.109 -2.36313 -55.0443
-155.753 25.0673 64.3861
-159.455 22.4916 64.228
-196.21 -54.5515 -7.39871
-193.182 -56.048 -5.79649
-90.9511 75.2847 -32.6107
-86.9581 75.6798 -33.027
-39.2317 -78.9672 -36.3284
-42.7326 -77.6541 -38.604
-35.6969 20.635 -84.6297
-119.249 -59.0767 -50.1293
-116.054 -58.3889 -51.8245
-103.565 -58.9107 54.4094
-107.46 -57.2188 55.2832
-176.061 46.9123 -41.8114
26.9022 14.0424 -86.3609
23.7744 15.8074 -86.168
-175.599 44.5881 -44.5057
-89.4435 -39.5875 72.0928
-93.3126 -38.4479 72.1091
-1.70755 -75.0121 -46.0091
2.63149 -75.2484 -45.616
-158.021 -33.1951 -59.8741
-154.736 -36.6313 -58.9132
25.3913 73.0213 48.3007
27.9097 71.0263 51.0285
-166.564 38.8196 53.2952
-168.977 36.447 54.0354
126.641 60.2648 46.3532
124.989 62.2381 44.2468
55.9142 20.262 83.3708
-158.144 12.6523 67.2457
-155.544 9.85852 68.4451
-43.6615 73.7684 -45.4843
70.9058 53.097 -65.6443
-40.9547 75.4327 -42.9948
222.064 -27.8282 -30.5325
225.276 -26.0123 -29.2252
-16.7664 79.9558 -36.2856
-19.5787 78.7138 -38.7454
247.477 -7.06407 13.9944
245.671 -9.07239 16.5073
-182.89 19.8584 57.0482
-181.349 22.7018 56.588
-55.2901 68.8666 51.2554
-53.0331 70.7373 48.9479
-221.672 26.3876 -32.1196
245.289 -12.7014 14.7129
-123.335 -44.6588 -62.3478
-128.466 -46.8996 -59.3624
-126.781 -44.2466 -61.7928
-219.064 -11.0525 41.7917
-206.365 49.881 -6.4805
-208.05 48.5187 -9.51739
-173.562 -35.1383 53.1154
-196.133 -34.8661 -42.6462
-56.8255 10.6635 85.0585
-99.2581 80.7116 4.84035
-149.825 -21.4663 67.3419
-153.216 -21.7115 66.3216
-105.421 79.8633 2.28204
-103.057 80.0923 5.3795
-208.259 -1.82477 -49.3014
-211.701 -0.4252 -47.5057
6.79938 76.7852 -42.9229
8.3723 75.0276 -45.8942
-15.3874 86.1449 -17.1483
-19.2253 85.4576 -19.8931
12.1352 74.4692 -46.6938
-209.316 34.9092 -34.0773
-209.423 37.4851 -31.1342
-243.669 12.2916 -17.9913
-205.99 40.0953 -30.6823
-237.951 16.7308 23.0645
-240.123 13.5366 22.3945
-198.668 34.6936 41.3299
-44.0882 -51.8581 -69.4029
-47.9336 -52.1759 -68.8504
-64.1922 78.5679 -32.6587
-61.0479 79.5478 -30.9816
-198.9 37.6906 38.4697
-195.376 39.9865 38.3624
193.193 51.8481 -22.051
191.207 51.6128 -24.5774
-17.3433 72.963 -48.8218
-16.1021 71.2098 -51.3947
-160.71 -8.6747 67.1316
-158.255 -5.14203 68.2008
-159.178 -12.1838 67.0332
-155.585 -13.9472 67.7189
-181.216 -39.3676 -46.6224
-187.067 -34.8938 -47.3505
234.201 -8.19808 31.0077
231.367 -8.83956 33.3482
-185.723 -37.805 -45.7359
-220.423 -36.3319 -21.8074
-223.2 -33.1947 -23.2994
-74.0314 69.7114 47.0459
-199.245 43.3743 -31.66
-202.409 40.5195 -32.9587
-78.8072 72.0288 42.3732
-74.9425 71.8818 43.4671
-199.862 -47.1004 -25.2005
-196.405 -49.1627 -24.5821
-156.238 -38.562 57.1702
-155.214 -34.6036 59.9755
-162.901 56.2654 -36.4593
-159.752 58.0934 -35.2797
245.94 -16.0777 8.95237
246.756 -13.0533 10.9096
-202.189 25.125 -45.9099
246.469 -16.6405 5.45937
-222.675 -40.7294 -3.81031
-219.564 -42.6764 -4.53599
-225.911 36.4553 -12.9115
-224.085 36.2148 -16.8755
-228.9 -34.8682 10.6501
-231.376 -33.5772 7.89164
-225.472 -37.7616 9.6946
119.562 74.827 19.8683
-172.163 -51.1024 -38.7774
115.367 75.6424 19.8172
47.917 12.1734 -85.526
51.5038 10.7751 -85.4584
-180.22 -22.1738 57.2351
-179.938 52.3246 -32.2822
-165.449 0.848668 66.2716
-168.573 2.82653 65.2452
-181.019 -17.4158 58.5568
36.4521 -59.7537 63.331
37.7864 -57.2068 65.5482
-159.984 -59.9393 -31.901
-182.767 -21.7977 -56.3847
-184.311 -18.0298 -57.0955
-11.9328 15.1127 -86.592
-188.59 -54.9978 19.1017
-192.466 -53.1211 19.6703
-145.932 9.33968 -71.0596
-143.733 12.1447 -71.1841
-174.358 52.4272 35.685
-173.423 50.7231 38.5876
-187.173 39.723 -43.3231
-231.496 33.4979 -7.79799
-229.09 35.9718 -4.95905
-234.902 30.8725 -5.94219
241.404 7.72102 23.4445
239.892 10.837 24.1019
240.609 13.402 21.8298
-138.878 -61.8299 -39.4932
-138.123 -60.1624 -42.2939
-141.495 -58.2498 -43.5868
-200.351 -41.1641 -33.6913
-218.715 20.1168 -38.5058
-52.6651 9.07587 85.569
-56.6795 -81.1829 27.5685
-60.194 -81.4606 25.779
-152.601 56.1711 41.6863
-153.363 58.0621 38.6418
-189.412 -9.89657 -57.0405
-186.065 -8.87884 -58.5374
64.9132 -8.70591 84.5714
67.8938 -7.06915 84.4374
-196.835 -37.2191 40.1908
-200.415 -34.6094 40.3565
-180.668 -48.2454 -37.6848
-174.532 -52.0916 -36.0705
-215.618 -38.5089 23.8562
-218.655 -36.4148 23.7606
-178.254 -50.9816 -35.4218
-121.519 47.965 -60.2948
-71.1333 59.7257 59.6435
26.871 -68.2994 54.6881
24.8078 -66.5868 56.8758
-87.1896 -8.5812 -82.0953
-84.0101 -6.27282 -82.7078
-30.8327 85.9673 -15.4025
-34.6092 85.5019 -16.9344
-74.9517 60.2177 58.5666
-117.584 49.009 -60.4102
67.0866 -10.9631 -84.0999
63.3372 -11.57 -84.3741
-122.297 44.7582 -62.5265
-75.9901 64.2273 -53.9618
-79.5258 64.3813 -53.1485
-210.937 -46.4387 -11.8319
-207.911 -47.2773 -14.7162
-70.3845 -66.905 51.5868
-82.2876 61.882 -55.5483
181.003 57.5731 -20.451
187.792 54.7431 -20.7267
-57.9896 -57.767 -63.2081
-60.2503 -59.9483 -60.875
185.029 56.5064 -18.9618
-52.2103 4.9612 85.9398
170.803 -60.9399 -21.4146
166.657 -61.8363 -22.7992
-242.161 -11.2305 20.9366
-241.443 -7.71428 23.3972
231.622 25.8611 -22.5153
229.371 25.1805 -25.8603
225.984 27.6877 -26.9257
-235.384 -18.9691 -24.5116
-234.849 -16.6286 -26.7382
-226.065 27.1651 -27.3713
-222.949 28.4627 -29.126
-220.766 31.3775 -28.1506
-250.634 -7.29429 -0.178553
-176.042 45.3099 43.5525
58.6445 51.2847 -68.5041
59.7337 48.4566 -70.421
128.101 68.381 32.5418
131.594 68.3044 30.9577
-176.924 47.6202 40.546
-181.027 46.7561 39.3156
18.7048 -86.4179 15.2681
142.031 69.3642 -21.5143
141.09 68.3967 -25.0748
23.2385 -86.1703 15.8921
181.098 -44.0244 42.315
25.6367 -86.6619 12.3796
-189.025 21.647 -53.8602
-189.446 17.9008 -55.0416
-212.326 -45.0144 14.0795
-120.847 -47.002 -61.2115
-24.321 -37.2717 79.2616
52.3079 18.5477 -84.0536
55.8222 16.7601 -84.1522
-25.2916 -41.1209 77.2966
-119.138 -6.52882 -77.2245
-115.758 -7.7444 -77.7398
-200.047 16.4767 50.7245
-215.148 -43.2641 14.3203
-153.419 33.0598 61.395
-156.843 31.3716 61.2216
-157.697 28.2231 62.4725
-79.9678 -83.4309 0.602888
-62.9405 73.0802 -43.7981
-62.2908 71.0279 -47.1592
-79.8045 -83.3553 -4.02114
-209.642 -18.6812 44.8802
-59.6547 71.6535 46.627
-205.671 -19.6735 46.6699
-191.283 -46.3883 33.354
-190.153 -45.0076 35.9366
-195.13 47.3268 29.0271
-192.216 -42.638 37.4507
-97.6692 19.8548 78.625
-94.0705 21.0195 78.8591
-195.846 -41.872 35.9839
-247.68 -8.81162 12.4834
188.065 -42.0217 40.5958
184.93 -44.2656 39.9695
-127.131 75.5165 7.90474
-123.488 76.0528 9.64415
48.8523 1.70454 86.3071
130.445 15.5956 -73.6037
-179.691 46.5302 -40.321
198.595 13.1808 52.3605
200.49 9.43436 52.2853
113.338 74.8983 23.6971
109.595 75.353 24.401
149.555 63.7448 -30.696
145.724 65.3554 -29.5432
-166.875 -45.6693 -47.4231
129.841 19.3593 -72.8369
-209.8 43.7085 -21.087
-206.94 46.1319 -19.3103
126.466 20.2117 -73.3307
-61.8869 -0.29239 85.2937
-59.1695 2.62521 85.4896
-53.838 -1.96142 85.9377
[...]
POINT_DATA 10490
VECTORS F double
1.27175e-08 3.01129e-08 7.59605e-09
1.27231e-07 8.94115e-08 -4.28221e-08
1.38795e-07 7.05774e-07 3.30527e-07
5.7544e-08 -7.38005e-09 -2.65678e-08
2.86023e-07 2.58275e-07 -8.8921e-09
1.81976e-07 1.94975e-07 -6.44677e-09
8.40222e-08 2.60538e-08 -7.30795e-08
-1.88386e-06 2.26176e-06 1.18332e-07
9.54201e-07 7.27078e-07 1.48765e-07
1.04389e-06 6.28053e-07 -3.58529e-08
1.22853e-08 7.39085e-08 -4.15185e-08
1.07875e-08 5.80336e-08 -2.03024e-08
9.85793e-08 3.56561e-07 1.89491e-07
-2.32674e-06 3.83248e-06 1.25986e-07
1.40016e-07 1.16421e-07 1.97924e-09
3.33492e-06 6.47351e-07 -1.17793e-06
4.30792e-06 7.6343e-07 -2.03551e-06
-1.0975e-08 2.0971e-08 1.1269e-08
-1.28956e-08 2.0304e-08 1.30674e-08
-2.79322e-05 4.84591e-06 4.624e-06
-2.70575e-05 4.07759e-06 3.15189e-06
-3.16845e-06 1.82228e-06 -2.70984e-07
-2.88009e-06 1.32362e-06 -2.24512e-07
3.07447e-08 2.18698e-07 -1.89142e-07
5.70573e-08 2.45419e-07 -2.25653e-07
1.49655e-08 1.66558e-07 9.83487e-08
-2.35204e-10 1.42228e-07 8.62794e-08
-4.46527e-08 1.87774e-07 2.41262e-07
-1.87383e-07 1.44859e-07 1.50697e-07
2.49821e-07 2.10484e-07 -1.92403e-07
5.67207e-07 2.57978e-07 1.14256e-07
3.7529e-07 2.83343e-07 -8.82417e-08
1.2735e-07 2.96055e-06 8.27857e-07
-2.95686e-07 1.57181e-06 4.31908e-07
-1.99913e-06 3.02173e-06 -2.12261e-08
1.41957e-08 2.86102e-08 5.92935e-08
9.33144e-05 1.78001e-05 3.66052e-05
0.000101894 2.10396e-05 4.35088e-05
3.93216e-08 5.35044e-10 -5.06134e-08
3.3841e-08 -2.63398e-09 -2.26643e-08
6.40808e-07 3.51599e-07 9.76541e-09
2.67121e-08 2.91839e-08 6.20049e-08
3.10974e-07 2.78705e-06 5.29388e-07
-1.50284e-06 3.6041e-06 -3.33675e-07
-2.16132e-08 1.28239e-08 -1.02787e-08
-3.67481e-08 3.32408e-08 1.51123e-08
1.28378e-06 8.74411e-07 -5.15307e-08
1.10308e-06 1.68469e-06 3.0046e-07
-5.22917e-08 1.03541e-07 -6.80116e-08
-4.56352e-08 1.16494e-07 -8.17197e-08
5.32885e-08 1.47089e-07 -5.46808e-08
7.00921e-08 1.56035e-07 -5.14774e-08
9.6637e-07 2.35564e-06 6.92885e-07
1.03377e-06 2.2781e-06 7.93897e-07
-4.03967e-08 9.84623e-08 8.64557e-10
-2.83805e-08 7.42077e-08 4.55242e-09
5.87743e-08 9.72949e-08 1.03283e-07
1.7692e-07 3.42656e-08 -6.59942e-08
-1.8359e-08 1.21376e-08 -1.75742e-08
-1.73042e-08 7.26521e-09 -1.60811e-08
-2.51139e-06 2.96081e-06 -2.34238e-07
-2.28982e-06 3.8647e-06 -1.73069e-07
1.28196e-08 8.712e-08 7.18341e-08
-3.84898e-08 5.46528e-08 9.48598e-08
-1.12519e-08 1.24997e-08 6.6269e-10
1.27297e-05 6.19698e-06 2.41871e-06
-2.11216e-08 3.70501e-08 2.43779e-08
-4.42671e-07 4.84171e-06 -6.93241e-08
1.66802e-07 3.77517e-06 -1.76714e-07
-7.37735e-07 6.79817e-06 5.6335e-07
-3.34288e-06 5.27489e-06 9.75397e-08
-2.2393e-06 4.03018e-06 2.4796e-10
-1.24655e-06 2.10536e-06 -2.35331e-07
5.4726e-09 4.50804e-08 5.57856e-08
2.57642e-09 1.27546e-08 1.08333e-09
-3.40634e-09 4.39824e-09 -9.60075e-09
3.36935e-07 3.85185e-07 -2.64113e-07
9.56363e-07 1.56509e-06 -2.02999e-07
4.8629e-07 5.59953e-07 -3.71487e-07
9.67767e-10 2.9005e-08 2.99131e-08
-9.70459e-09 1.05534e-08 1.07343e-08
-2.82938e-09 1.08727e-08 2.27106e-09
1.953e-08 1.57453e-08 3.94609e-08
2.62318e-08 6.0844e-09 4.13218e-08
1.34733e-08 3.37719e-09 2.49775e-08
1.60569e-08 1.8267e-08 3.77199e-08
3.83991e-08 3.35083e-08 8.23317e-08
2.35783e-07 2.99492e-07 -9.68388e-08
3.98196e-08 2.86053e-08 7.69146e-08
-2.04421e-07 4.70959e-06 -3.92664e-07
2.20534e-06 2.79457e-06 -2.61054e-07
2.03286e-06 3.2673e-06 -5.10556e-07
-2.47529e-08 1.90129e-07 1.74812e-07
-6.65782e-08 2.80128e-07 2.49483e-07
4.9438e-06 3.08871e-06 1.77491e-06
6.14217e-06 2.5404e-06 5.92e-07
4.26373e-07 3.39251e-07 -4.438e-07
1.30083e-06 5.855e-07 -3.3432e-07
2.73761e-05 1.97826e-05 1.97953e-05
2.14762e-06 1.67803e-06 1.42889e-07
1.90063e-06 3.90506e-07 -1.06191e-07
2.63236e-05 2.22862e-05 2.45228e-05
-9.77143e-07 3.16448e-07 -6.75406e-08
-1.03719e-06 3.50619e-07 -1.00939e-07
3.48799e-09 1.29695e-08 3.59199e-08
-5.98279e-10 1.80229e-08 3.92368e-08
1.01928e-06 5.44648e-07 9.58578e-08
1.00371e-06 6.80047e-07 -5.62881e-08
6.08087e-08 8.46007e-08 -2.01643e-08
4.65038e-05 2.31715e-05 -3.49327e-05
4.70358e-05 2.29748e-05 -3.81967e-05
3.4747e-08 8.71881e-08 1.61478e-08
4.42171e-08 -2.26709e-08 2.74518e-09
4.43965e-07 3.80582e-07 2.29871e-07
2.21144e-07 1.41247e-07 1.01364e-07
6.73997e-07 3.66876e-07 -2.81802e-07
8.11523e-07 3.86954e-07 -2.9943e-08
-6.79393e-09 1.17807e-07 -1.07367e-08
1.25908e-07 1.63172e-07 -6.19256e-08
3.84659e-07 2.42303e-06 -8.29426e-07
1.27201e-06 9.50238e-07 5.38697e-08
7.91118e-09 -1.86624e-09 -1.19232e-08
-1.43843e-09 -5.76614e-10 1.14456e-08
2.68928e-05 7.52459e-06 8.18832e-06
2.82553e-05 9.25774e-06 1.21054e-05
-4.37577e-08 4.98609e-08 -1.02596e-07
-2.98913e-08 6.43701e-08 -1.25432e-07
1.39112e-06 1.03336e-05 2.44778e-06
1.26627e-07 1.56563e-07 -2.21386e-07
1.23501e-07 1.82093e-07 -2.39018e-07
3.94423e-08 1.46979e-07 1.6833e-07
8.58958e-08 2.37039e-07 2.65779e-07
2.46384e-06 7.48207e-07 -4.30713e-07
-4.04053e-07 6.31162e-06 1.01087e-06
-2.28986e-06 3.47051e-06 5.59308e-07
7.09466e-07 7.85761e-08 -2.63992e-07
2.41125e-07 5.7281e-07 3.51166e-07
3.00823e-07 8.89152e-07 5.21747e-07
-6.2664e-08 8.13637e-08 -1.32369e-07
-6.15119e-08 5.88649e-08 -9.75388e-08
1.23832e-07 2.36585e-07 -1.71179e-07
2.63251e-08 1.49563e-07 -1.01461e-07
-4.53826e-05 1.85372e-05 -2.51038e-05
-4.02464e-05 2.01111e-05 -2.52976e-05
2.68085e-06 1.19714e-06 1.53801e-07
2.32772e-06 1.37975e-06 -3.94559e-08
-5.23705e-07 1.27465e-07 9.455e-09
-1.33783e-06 6.13732e-09 4.54046e-07
-9.90141e-07 8.34499e-07 -1.21514e-07
9.4935e-07 1.03605e-06 7.8407e-08
2.41608e-07 2.71655e-07 2.8094e-08
4.50623e-05 3.67072e-05 5.42373e-05
-5.66103e-06 2.69739e-06 1.43317e-06
5.08335e-05 3.4752e-05 5.50427e-05
-2.32916e-09 7.80017e-09 -9.18354e-09
-1.51061e-09 6.11628e-09 -6.86978e-09
0.000103776 4.55067e-05 9.44038e-05
9.21874e-05 4.95236e-05 9.49073e-05
-7.00596e-10 -5.38484e-10 1.24833e-09
-1.22368e-09 6.50758e-10 2.59081e-09
3.76887e-07 5.5182e-07 -4.41603e-08
3.17879e-07 6.08781e-07 -1.19506e-07
3.96189e-05 3.1049e-05 -3.6485e-05
4.08882e-05 3.08768e-05 -3.9198e-05
1.9994e-07 7.73537e-08 -1.05391e-07
-4.02026e-09 -1.7034e-09 6.73696e-09
2.41775e-07 1.92025e-07 -1.961e-07
9.81857e-09 1.28747e-07 -1.04319e-07
2.24642e-07 3.57129e-08 -8.20005e-08
-4.81269e-10 1.33902e-07 3.51047e-08
5.5829e-07 2.97873e-07 1.1615e-07
5.99499e-07 3.23321e-07 4.37932e-08
9.51829e-08 1.379e-07 1.29306e-07
9.07531e-08 4.23984e-09 -5.45665e-08
2.06268e-06 3.81524e-06 -3.09594e-07
3.18911e-05 4.91205e-06 -1.84069e-06
-3.99212e-08 2.7153e-07 7.56806e-08
-7.28363e-08 3.71496e-07 1.01014e-07
2.79727e-05 4.69297e-06 -6.02874e-06
2.99331e-05 5.1304e-06 -6.17708e-06
4.76413e-08 9.33692e-08 -2.80945e-08
6.70329e-08 1.88391e-07 -3.82595e-08
-8.98438e-06 3.44623e-05 6.14758e-05
-3.07054e-05 3.00246e-05 4.83983e-05
0.000243712 1.30796e-05 3.893e-05
0.000217096 1.63751e-05 4.46564e-05
-3.17697e-05 2.26301e-05 3.50806e-05
2.98868e-07 2.23383e-07 4.07961e-09
8.72513e-07 4.73676e-07 -1.48239e-07
1.05466e-07 1.80759e-07 -5.13875e-08
7.84427e-07 6.00914e-07 1.405e-07
6.89416e-08 2.05532e-07 -6.20098e-08
8.17965e-08 1.73051e-07 2.77808e-09
4.17286e-07 -1.84562e-07 4.00505e-07
4.29593e-07 3.14164e-07 -2.68155e-07
3.9538e-07 3.99099e-07 -3.36144e-07
6.02295e-05 2.04238e-05 3.46401e-05
6.45667e-05 1.92211e-05 3.37753e-05
6.95312e-07 -4.15976e-08 4.8089e-07
5.11284e-07 2.92757e-07 1.36501e-08
-7.09844e-08 3.36437e-08 2.96244e-09
-1.00219e-07 5.47758e-08 1.95698e-08
1.96152e-05 4.70483e-05 6.94597e-05
6.1686e-07 4.26037e-05 5.9006e-05
7.35576e-07 4.20344e-07 2.69909e-07
9.01473e-07 3.48877e-07 2.82403e-07
1.91438e-07 1.56877e-07 8.41692e-08
3.07953e-07 3.70923e-07 1.63016e-07
1.01413e-07 9.87561e-08 -1.31648e-07
1.15075e-07 7.69139e-08 -1.1234e-07
1.54191e-09 1.00515e-08 1.23114e-09
1.15384e-09 9.82461e-09 1.62465e-09
8.758e-08 6.32823e-08 -9.58504e-08
3.51149e-09 2.85105e-09 -9.09437e-09
-1.23776e-09 4.97593e-09 -5.63902e-09
3.28867e-05 1.45096e-05 -1.5164e-05
7.87544e-07 6.32044e-07 2.59105e-07
8.21269e-07 5.95069e-07 1.14079e-07
2.80317e-05 1.01122e-05 -1.08065e-05
3.1643e-05 1.43387e-05 -1.70326e-05
4.04867e-09 1.39146e-08 -2.9938e-08
3.2003e-10 7.50865e-09 -1.5331e-08
6.68921e-08 2.63892e-07 2.00379e-07
1.99547e-07 2.44949e-07 2.04552e-07
1.53965e-06 1.09963e-06 8.54765e-07
1.91844e-06 9.96946e-07 5.78067e-07
1.9142e-09 6.94637e-09 6.03631e-09
6.26673e-10 7.41792e-09 7.1457e-09
3.28491e-07 2.32014e-07 -5.01465e-08
5.75449e-10 2.95098e-09 5.82535e-09
-2.82679e-08 1.98906e-08 -1.03596e-08
-2.14808e-08 9.94369e-09 3.37456e-08
3.10888e-07 2.37299e-07 4.03241e-09
4.0256e-07 3.12988e-07 1.7216e-08
1.23848e-08 -1.73859e-09 2.68941e-08
-2.31774e-09 1.15907e-08 4.10029e-08
1.81473e-09 -5.44028e-09 -1.60199e-08
-1.88622e-06 1.93221e-07 6.61978e-07
5.15161e-08 -1.99119e-08 -1.76227e-09
-1.9545e-06 2.43403e-07 4.63968e-07
6.0043e-07 1.38314e-06 2.38055e-07
5.23928e-07 9.18305e-07 1.54444e-07
1.10635e-07 3.16758e-07 1.65367e-07
1.57462e-06 5.2501e-07 -2.23582e-07
4.61738e-07 2.05868e-07 1.38495e-07
4.73539e-07 2.88692e-07 1.37284e-07
1.52086e-07 3.42733e-07 1.59496e-07
-3.74146e-08 1.85358e-07 1.77525e-07
-1.7325e-08 1.96148e-07 1.72409e-07
4.19149e-08 1.15374e-08 -4.74127e-08
6.9231e-08 6.40059e-08 -5.22181e-08
2.24016e-07 1.2286e-07 -1.27333e-07
8.64111e-07 9.05224e-06 1.56528e-06
6.88516e-09 9.60086e-09 3.59664e-08
1.91857e-09 8.34426e-09 2.4833e-08
1.08545e-06 7.49111e-07 -1.74459e-07
7.90922e-07 1.09124e-06 -9.34867e-09
1.79892e-06 1.14788e-06 -6.10309e-07
1.28262e-06 8.96996e-07 -4.73347e-07
1.0736e-06 1.04217e-06 3.87686e-07
3.57648e-07 3.01562e-07 -4.47856e-09
3.30076e-07 2.67723e-07 7.51215e-08
2.82124e-07 2.22216e-07 -2.10931e-07
-1.14792e-08 1.92087e-08 8.14584e-09
-7.76338e-09 2.40508e-08 -1.35358e-09
-8.1215e-09 2.35203e-08 -3.47939e-09
7.28053e-08 2.88218e-08 -7.64675e-08
1.33227e-08 5.52843e-08 -8.39683e-08
7.3547e-08 1.12644e-07 -1.7977e-07
-1.11834e-08 6.582e-08 -7.22766e-08
1.31062e-07 2.04039e-07 1.54545e-08
3.1602e-06 5.90234e-06 -3.87907e-07
2.46342e-08 1.91939e-08 6.27212e-08
1.79219e-08 1.86639e-08 6.41015e-08
1.01556e-06 1.81464e-07 2.10641e-07
3.45181e-06 1.14316e-06 -4.0406e-08
1.41079e-07 2.49523e-07 -1.00649e-07
1.89892e-07 1.45719e-07 -9.60001e-08
1.80551e-07 5.50464e-07 3.96976e-08
3.35081e-09 9.76978e-07 8.14618e-08
2.03105e-08 7.21349e-08 7.89793e-08
1.49853e-08 7.33616e-08 7.20252e-08
2.10989e-08 2.34397e-08 -4.23921e-08
1.85656e-08 4.15683e-09 -1.70008e-08
1.54433e-08 3.36761e-09 2.25258e-08
1.75954e-08 1.22657e-08 3.8623e-08
1.49399e-08 1.77404e-08 -3.47385e-08
7.82198e-06 4.09515e-06 1.32766e-06
2.61077e-05 1.9549e-05 -1.57638e-05
-4.48045e-09 2.13064e-07 2.66363e-07
-1.12672e-07 1.72583e-07 2.08067e-07
8.2108e-07 1.6198e-06 -2.76076e-07
7.24417e-07 1.91772e-06 -2.35534e-07
0.000174098 1.43325e-05 3.73261e-05
0.000157651 1.66811e-05 4.47753e-05
2.41335e-05 1.71822e-05 -1.38853e-05
7.79057e-06 5.68575e-06 2.75616e-06
-8.42438e-07 6.83364e-07 -1.71358e-07
-8.68773e-07 5.67483e-07 -1.57663e-07
5.07929e-06 4.06019e-06 1.69008e-06
2.50281e-05 1.82228e-05 1.73743e-05
2.26108e-05 1.45466e-05 1.34789e-05
1.18661e-09 -5.97055e-09 2.08414e-08
-2.10619e-08 1.55485e-08 -1.35231e-08
-1.35717e-07 6.35119e-08 5.97002e-08
2.12524e-05 1.45885e-05 1.23974e-05
-1.86628e-07 5.52374e-08 -4.67303e-08
-1.47433e-07 7.03972e-08 2.23839e-08
-4.53405e-07 2.78249e-07 -2.03368e-07
-2.7985e-07 1.57837e-07 -1.21523e-07
-1.83595e-07 7.06062e-08 -8.93705e-09
1.04506e-06 5.40212e-06 -2.3413e-07
9.4561e-09 5.33226e-09 -5.9402e-09
9.83614e-09 7.11588e-09 -1.04969e-08
-1.40786e-08 3.28268e-08 -2.32498e-09
7.19781e-09 2.30818e-08 1.67058e-08
-4.94111e-09 1.34433e-08 9.21664e-09
-1.45079e-08 2.73197e-08 1.08456e-08
-1.79067e-08 2.36617e-08 5.93072e-09
-3.20716e-08 5.59637e-08 -5.60466e-09
4.45837e-08 3.07533e-09 -4.98555e-08
2.74028e-07 3.21333e-07 4.18202e-08
2.77672e-07 1.56033e-07 -1.07745e-07
2.02608e-07 1.9193e-07 1.93979e-08
-2.29349e-08 9.68074e-08 -1.36189e-08
9.63713e-07 4.69525e-07 -1.15556e-08
-3.89589e-06 3.27947e-06 2.0468e-06
-2.68547e-06 3.3756e-06 2.04386e-06
-9.81502e-07 4.37134e-08 3.81176e-07
-8.46223e-07 -6.3769e-08 5.81095e-07
1.52696e-06 7.4097e-07 -5.45007e-08
1.39257e-06 2.56604e-07 4.79864e-07
-1.44772e-08 9.39837e-09 5.53688e-08
-4.59571e-07 -2.28501e-08 -4.45129e-07
-8.02969e-07 5.41012e-08 -4.05592e-07
-4.47802e-09 6.27449e-10 4.20708e-09
-1.10062e-08 6.43319e-09 1.24597e-08
-1.07653e-08 -7.41129e-10 -2.46199e-09
1.72023e-07 5.07298e-07 1.29973e-07
1.31539e-07 4.94033e-07 1.05241e-07
-2.71012e-08 2.21203e-08 2.06861e-08
3.44926e-07 2.42123e-07 -2.69289e-07
-5.89534e-08 2.56893e-07 1.18585e-07
-1.49925e-06 2.01032e-06 3.29378e-07
-1.42421e-06 1.93263e-06 2.69245e-07
-1.50727e-07 2.34232e-07 1.1857e-07
-9.63159e-08 1.06176e-06 -7.15736e-08
-3.5684e-08 1.12047e-06 -1.05116e-07
3.15967e-07 5.92761e-07 -3.99824e-08
-2.60736e-08 2.67509e-08 3.28579e-08
1.58848e-06 2.69024e-06 -9.62651e-07
1.83707e-06 1.8873e-06 -3.90902e-07
-1.6012e-07 2.09193e-06 -9.94554e-07
-3.22991e-08 3.71683e-09 -1.02218e-08
3.69026e-05 2.55173e-05 3.60847e-05
2.87863e-05 2.47324e-05 3.2595e-05
7.34728e-09 -2.45152e-10 -1.27698e-08
2.92886e-09 7.78016e-08 3.40595e-08
4.2301e-05 2.50904e-05 -3.19314e-05
1.49171e-08 1.3319e-07 6.41936e-08
2.42309e-08 2.77229e-08 5.55691e-08
4.04171e-08 2.3575e-08 5.57089e-08
3.6109e-07 3.74784e-07 -3.13877e-07
2.62321e-08 2.38774e-08 4.36689e-08
2.75204e-06 6.23575e-06 -1.15614e-06
3.80466e-06 3.81578e-06 -4.61423e-07
1.2956e-08 6.63828e-08 8.58782e-08
-1.28452e-08 7.30341e-08 2.03534e-08
-2.5004e-08 1.34673e-08 2.81221e-08
-1.29603e-08 3.47541e-10 7.72608e-09
7.19534e-06 1.52863e-06 -4.35525e-07
9.13604e-06 2.26948e-06 -3.57473e-06
-2.44912e-06 1.99364e-06 1.30346e-07
-1.56623e-07 3.63141e-07 4.29588e-08
2.45863e-06 9.7382e-07 -2.17684e-07
-5.72162e-08 7.70828e-08 7.16473e-09
-2.33356e-08 9.0349e-08 -5.34703e-09
-1.64458e-06 8.06656e-08 7.08038e-07
-1.89265e-06 4.52168e-07 -3.55608e-07
-8.61655e-07 2.05116e-07 -8.80277e-08
-1.00945e-06 1.20463e-07 -3.43126e-07
-7.41163e-08 9.90152e-08 -6.34235e-08
-4.13222e-07 3.51645e-07 3.27739e-09
4.94332e-07 1.64387e-07 -2.6141e-07
4.93438e-07 1.82988e-07 -2.10256e-07
-4.33288e-07 3.59597e-07 7.62598e-09
6.66608e-07 4.91767e-06 7.60728e-08
1.77374e-06 4.17178e-06 2.21924e-08
1.18817e-06 3.64531e-06 1.7433e-07
1.32348e-08 1.54113e-08 5.51525e-08
7.6471e-06 1.64205e-06 3.09883e-07
8.52836e-06 1.82751e-06 -1.21374e-06
-1.49408e-06 6.38367e-06 -1.1131e-06
1.27031e-08 -2.10144e-09 1.50616e-08
1.96534e-06 4.15625e-06 6.68472e-08
3.39598e-06 8.46342e-06 4.53567e-06
4.80863e-06 5.90532e-06 2.56481e-06
9.43221e-06 8.21706e-06 3.8706e-06
1.04769e-07 4.09351e-07 6.82388e-08
7.05924e-08 5.33469e-07 4.88153e-08
-3.0149e-07 1.48642e-06 1.69401e-07
-5.92504e-08 8.17278e-07 9.65933e-08
6.7683e-07 2.94824e-07 1.5032e-07
3.43729e-07 5.24868e-07 1.03537e-07
1.91095e-06 6.44989e-07 -3.19492e-08
2.56191e-06 1.0767e-06 4.02475e-07
-3.63371e-08 8.59062e-10 2.79406e-08
-3.0981e-08 -2.53245e-09 1.41251e-08
7.44711e-08 1.87505e-08 -8.13404e-08
5.85613e-08 8.57837e-09 -4.94075e-08
-2.15486e-08 7.02663e-08 1.05752e-07
1.43483e-08 5.76385e-08 1.12761e-07
-1.57088e-08 5.94845e-08 9.88779e-08
2.63678e-07 1.00242e-07 2.0266e-07
3.96584e-07 2.42925e-07 -6.70881e-08
5.62528e-07 2.64894e-07 1.41535e-07
2.30825e-08 7.53861e-08 -8.20098e-08
1.24899e-08 7.68886e-08 -7.83156e-08
-4.56116e-08 5.76307e-07 -3.32929e-07
2.90397e-08 3.33517e-07 -1.97571e-07
-3.92789e-07 3.10019e-06 -5.6269e-07
-1.00016e-06 2.23464e-06 -4.10703e-07
-1.47288e-08 6.34884e-08 -5.60664e-08
2.05437e-07 -8.37395e-09 -3.95183e-08
-2.01713e-08 5.10436e-09 1.16368e-08
1.3209e-08 3.34082e-08 -5.14424e-08
-1.54553e-06 3.85473e-06 -1.67309e-07
-7.94971e-08 3.64461e-07 -2.70623e-07
-1.41177e-07 3.1538e-07 -2.22336e-07
2.05786e-05 3.06589e-05 3.01387e-05
1.66511e-06 8.6552e-07 1.27504e-06
8.55442e-05 7.54306e-06 5.70417e-06
9.65462e-05 7.94913e-06 -6.80189e-06
7.75307e-05 8.1647e-06 -1.60878e-05
9.28988e-05 7.78518e-06 -3.17262e-06
1.83307e-06 8.44171e-07 1.24106e-06
1.98064e-05 2.50072e-05 2.37702e-05
1.88719e-05 2.48285e-05 2.16844e-05
4.54805e-08 2.93351e-08 -8.14805e-08
-2.53327e-08 5.749e-09 -2.90634e-08
-1.27489e-08 4.74851e-09 -5.16068e-08
5.10989e-08 1.84695e-08 -6.75536e-08
2.29214e-08 8.62306e-09 -3.31494e-08
1.38161e-07 2.44853e-07 8.74909e-08
1.00336e-07 3.65629e-07 2.20898e-07
-6.07152e-07 7.72885e-08 2.29675e-07
-2.27387e-05 9.31662e-06 -9.05429e-06
-2.36072e-05 9.69145e-06 -1.01214e-05
-8.67173e-07 7.6556e-07 -2.12582e-07
2.12268e-07 2.03001e-07 -1.65081e-07
3.56099e-07 3.83947e-07 1.06662e-07
1.86826e-07 5.17566e-07 -2.73821e-07
1.75678e-07 2.15282e-07 -1.44467e-07
1.23202e-07 4.50095e-09 7.34463e-08
1.00881e-07 5.36819e-08 1.29346e-07
6.3223e-08 3.21638e-08 8.3244e-08
1.17338e-06 1.57456e-06 -1.07774e-07
1.2989e-06 1.78079e-06 -1.10484e-07
-4.96118e-05 1.95189e-05 -2.91049e-05
-9.39528e-08 2.01503e-07 4.68737e-09
3.28622e-08 6.1739e-09 2.11443e-08
-2.91628e-08 6.69424e-08 1.2132e-07
6.22057e-07 1.90142e-06 -2.01813e-07
6.47611e-07 1.33693e-06 -1.65652e-07
-5.28991e-08 9.03229e-08 -1.50671e-09
1.17687e-07 1.87063e-07 4.01427e-09
-1.05659e-07 1.61351e-07 -1.15061e-08
-1.62914e-05 6.19379e-07 -1.44472e-06
3.48485e-09 1.0586e-07 -5.09545e-08
-2.66584e-09 9.00248e-08 -4.45171e-08
-9.22485e-06 -4.80983e-07 -2.30247e-06
7.86857e-07 7.33045e-07 -2.59727e-07
-1.31192e-05 2.53176e-06 1.8135e-06
-1.12654e-08 1.02657e-07 1.39917e-09
1.64513e-06 6.05776e-07 1.38831e-07
1.81862e-06 4.80762e-07 4.68275e-07
2.49969e-09 6.75669e-08 -3.54947e-08
-9.51417e-09 7.9589e-08 2.35467e-08
1.13348e-07 2.03707e-07 -1.22897e-07
1.79071e-08 -1.04783e-08 -1.78745e-08
1.76684e-08 5.03228e-10 -3.69424e-08
4.41868e-07 4.63667e-07 -1.26561e-07
5.51746e-07 3.89584e-07 6.64084e-08
2.66794e-06 2.11778e-06 8.48192e-07
3.24733e-05 2.75872e-05 3.52944e-05
2.49278e-05 2.73393e-05 3.26681e-05
1.6994e-08 7.95107e-10 1.71883e-09
-1.50646e-08 2.66462e-10 -1.61182e-08
2.44902e-05 2.645e-05 2.95516e-05
3.55212e-07 9.56292e-08 1.52564e-07
1.78498e-07 1.42768e-07 1.27731e-08
-2.20794e-08 5.57755e-08 -2.07793e-09
-1.01914e-07 1.9465e-07 1.74911e-07
-9.21503e-08 2.13632e-07 1.75583e-07
-4.92925e-07 3.38542e-06 2.84518e-07
-9.58281e-08 4.08651e-08 3.82364e-08
-2.58486e-08 1.2079e-07 9.45906e-08
-4.26705e-05 3.50742e-05 -5.71429e-05
-3.06181e-05 3.10302e-05 -4.64006e-05
-6.44418e-07 3.38399e-06 2.97717e-07
1.05037e-06 1.19386e-06 -2.36534e-07
-2.27814e-07 2.87149e-06 3.79223e-07
-2.69295e-09 -3.5068e-09 -2.35951e-08
2.56168e-07 7.4778e-07 -2.0508e-07
4.66934e-06 3.57543e-05 -3.48717e-05
3.60789e-07 4.88154e-07 -6.26423e-08
9.13001e-07 6.18848e-07 6.34033e-07
5.97114e-08 1.0494e-07 -5.32575e-08
-3.28939e-08 4.73848e-08 2.96124e-08
8.84981e-09 2.19488e-09 -3.81998e-09
-4.01033e-09 3.26634e-09 -2.08307e-08
-1.76145e-05 2.07476e-05 -2.0405e-05
-3.04297e-08 6.26308e-08 9.70929e-08
1.28143e-06 4.83581e-07 -1.7224e-07
-5.38165e-09 -2.65278e-09 1.87934e-09
6.64016e-08 1.30546e-07 1.42457e-07
2.16616e-08 9.85873e-10 2.22686e-08
1.49496e-05 2.47416e-05 -1.81285e-05
2.60227e-07 8.64226e-08 -1.03152e-07
1.40548e-05 2.53853e-05 -2.08275e-05
0.000344191 4.5113e-06 -6.25083e-05
0.00032154 8.11448e-06 -6.69319e-05
1.48614e-08 9.79132e-08 9.34261e-08
0.000154991 4.59728e-05 -0.000127964
1.27173e-08 1.10401e-07 8.97067e-08
-4.95654e-08 6.48977e-08 1.25087e-08
-5.80186e-08 4.71493e-08 -5.5447e-09
4.21537e-08 1.52205e-07 1.28044e-07
1.04264e-06 1.07469e-06 -3.4165e-07
1.43004e-08 6.20645e-10 -9.84037e-09
3.41758e-07 2.67258e-07 -9.29776e-08
3.42131e-05 3.48285e-05 -3.77579e-05
3.44296e-07 1.87922e-07 7.32912e-08
3.48116e-07 1.50703e-07 1.35431e-07
3.55592e-07 1.79811e-07 1.14649e-07
3.23678e-05 2.87696e-05 4.05582e-05
-8.66862e-08 4.65521e-08 -1.71621e-08
-7.60516e-08 3.98837e-08 -4.51183e-08
-1.64017e-07 9.80501e-08 -9.42601e-09
-2.91713e-07 2.47465e-07 -6.57056e-08
3.69457e-05 3.30872e-05 4.57832e-05
7.42267e-06 3.42049e-06 -8.47732e-07
2.71418e-06 4.70919e-06 -2.32616e-06
2.92521e-06 4.5045e-06 -2.05564e-06
0.00022144 9.06823e-06 -3.02416e-05
0.000208245 1.00981e-05 -2.85373e-05