# vtk DataFile Version 2.0
S, Created by Mohamad Ibrahim Cheikh
ASCII
DATASET UNSTRUCTURED_GRID
POINTS 10490 double
-223.577 20.3391 -34.7913
-223.729 23.2855 -32.7652
-130.491 -29.3051 69.2856
-194.383 -37.8827 -41.0229
-207.471 29.5087 40.0417
-235.876 27.399 13.4741
-191.274 -39.7117 -41.0825
14.3973 -3.12303 87.8002
-191.065 39.2253 -41.6648
-193.405 36.9354 -42.429
-251.147 3.21278 -3.38104
-251.007 5.46275 -0.71503
-204.326 29.3011 -42.1199
18.5934 -1.4985 87.7464
-201.228 30.3642 -43.1793
-151.312 68.7434 -14.6719
-148.515 69.9541 -12.2485
241.381 21.7607 -11.7086
240.378 24.3447 -8.78219
39.4302 72.9439 -47.253
43.2699 72.2313 -47.9314
45.4133 -3.19243 -86.4946
49.2757 -1.50582 -86.2813
-145.563 -45.4935 -55.4998
-142.058 -46.9179 -55.4257
-191.797 -27.3635 49.9149
-189.472 -30.0419 49.4599
-64.34 -67.8349 51.3382
-66.4818 -66.0153 53.3372
-121.227 -41.6784 -64.8666
-205.489 44.6083 24.1745
-208.431 41.8725 25.9209
-64.8752 -22.5763 81.9697
-61.2439 -23.9219 81.93
44.304 4.19945 86.522
-201.398 -44.9173 27.5771
-51.7302 82.7069 -23.9989
-48.5518 82.3883 -25.8372
-109.541 -78.4117 -11.2488
-105.514 -79.2425 -10.0784
-195.493 42.6416 35.3086
-200.947 -43.0029 30.8393
-54.4259 -15.3115 84.5393
3.51011 8.29302 87.5998
226.254 36.0726 -13.2454
223.493 37.2791 -15.4581
-146.989 22.4271 -67.7925
-143.828 23.6932 -68.1906
-167.022 -43.0229 -49.7762
-163.503 -43.4777 -50.8007
-215.266 -7.15738 -44.9378
-215.166 -3.16147 -45.4523
-105.629 -17.6049 77.8977
-104.092 -21.1418 77.2688
-247.96 -12.5222 7.72452
-247.222 -12.224 10.5723
-226.224 -18.8457 33.5143
-129.024 -40.8336 -63.5493
238.447 4.07566 -27.6836
236.191 2.1181 -30.1594
30.6676 -3.71575 -87.2642
26.6969 -1.97694 -87.4805
-224.96 -22.5394 32.2508
-47.6608 -75.8715 41.3449
-235.553 -26.7705 15.3058
-110.158 51.2395 -60.2732
-237.919 -25.2889 13.1991
-16.8446 -1.4407 -87.7906
-20.0188 -3.98986 -87.63
25.3011 7.57119 -87.2256
27.3468 3.74342 -87.3981
25.4378 1.74001 -87.5314
45.964 -6.31084 -86.2874
-242.159 -16.9746 16.6263
249.587 -5.3689 -9.40942
249.11 -2.30248 -11.8808
-169.139 48.1693 43.8319
30.4635 -13.4717 -86.307
-165.512 47.9412 45.7357
-244.371 -14.4429 14.9731
243.986 6.92806 20.1944
244.544 3.56448 20.2422
-218.53 -34.2526 26.9084
-142.145 -69.4109 21.2694
-139.63 -70.7397 18.7865
-221.095 -32.0562 27.0483
-157.97 -59.7997 33.3586
-205.036 32.4648 39.282
-154.319 -61.3635 32.6026
21.3251 7.40255 87.3701
-119.054 18.5366 75.2667
-116.386 20.6254 75.2342
25.5778 -59.0311 64.647
29.1123 -57.6594 65.6935
-134.508 55.0726 -49.9594
-136.787 52.5787 -51.8527
-177.089 57.9209 23.4452
-176.686 59.3963 19.851
-69.6891 65.4356 -53.5499
-62.7369 16.9441 -83.5166
-66.3548 16.9224 -83.178
-66.1631 66.9994 -52.1453
124.454 57.7489 50.1275
121.02 58.3554 50.4534
-132.441 -69.847 26.7937
-132.815 -68.0009 30.9876
-188.857 35.1238 46.299
-185.11 37.2955 46.453
-232.726 13.1747 -30.6502
-59.436 75.4231 40.2847
-60.7483 76.9345 37.0577
-231.927 16.7989 -29.6015
-175.271 -46.9574 -42.1659
-178.786 -11.2274 60.8648
-181.797 -8.37461 60.229
-195.815 53.7559 12.6443
-198.368 52.0693 14.6691
-195.137 -6.40302 -55.1458
-196.109 -2.36297 -55.0444
-155.753 25.0697 64.3853
-159.453 22.4926 64.2281
-196.21 -54.5515 -7.39872
-193.182 -56.048 -5.79647
-90.9242 75.2922 -32.6026
-86.9298 75.689 -33.0149
-39.2318 -78.9671 -36.3285
-42.7327 -77.6541 -38.6042
-35.6956 20.6453 -84.6273
-119.249 -59.0765 -50.1295
-116.054 -58.3887 -51.8248
-103.565 -58.9105 54.4095
-107.46 -57.2186 55.2835
-176.059 46.9131 -41.8118
26.9018 14.0487 -86.3599
23.7721 15.8109 -86.1675
-175.598 44.5882 -44.506
-89.4432 -39.5869 72.0931
-93.3123 -38.447 72.1097
-1.70761 -75.012 -46.0092
2.63143 -75.2484 -45.6161
-158.021 -33.1949 -59.8743
-154.736 -36.6312 -58.9133
25.346 73.0399 48.2755
27.8694 71.0464 51.0031
-166.561 38.8208 53.2954
-168.975 36.4484 54.0353
126.641 60.2649 46.3532
124.988 62.2381 44.2473
55.9132 20.2628 83.3707
-158.143 12.6533 67.2458
-155.544 9.85879 68.4451
-43.6163 73.8049 -45.4305
70.9001 53.0997 -65.6428
-40.9035 75.4672 -42.9403
222.064 -27.8282 -30.5325
225.276 -26.0123 -29.2252
-16.6608 80.0009 -36.192
-19.485 78.763 -38.6511
247.477 -7.06407 13.9944
245.671 -9.07239 16.5073
-182.89 19.8589 57.0482
-181.349 22.7024 56.5879
-55.2504 68.8976 51.219
-52.9921 70.7681 48.9088
-221.671 26.3877 -32.1197
245.289 -12.7014 14.7129
-123.335 -44.6586 -62.348
-128.466 -46.8995 -59.3625
-126.781 -44.2466 -61.7929
-219.064 -11.0524 41.7917
-206.365 49.8813 -6.48039
-208.049 48.519 -9.51734
-173.562 -35.1382 53.1155
-196.133 -34.8661 -42.6462
-56.8234 10.6673 85.0582
-99.2264 80.7165 4.83848
-149.825 -21.4661 67.342
-153.216 -21.7111 66.3217
-105.393 79.868 2.27608
-103.027 80.0974 5.3734
-208.259 -1.82468 -49.3014
-211.701 -0.425012 -47.5057
6.79181 76.82 -42.8607
8.34219 75.0578 -45.8454
-15.1452 86.1577 -17.1101
-19.0092 85.4736 -19.8498
12.1039 74.492 -46.6584
-209.316 34.9094 -34.0773
-209.422 37.4855 -31.1344
-243.668 12.2918 -17.9914
-205.99 40.0959 -30.6821
-237.951 16.731 23.0644
-240.123 13.5368 22.3945
-198.667 34.6934 41.3303
-44.0878 -51.8578 -69.4031
-47.9332 -52.1755 -68.8508
-64.1321 78.5882 -32.6243
-60.9835 79.5669 -30.9481
-198.899 37.6906 38.4702
-195.376 39.9868 38.3624
193.193 51.8481 -22.051
191.207 51.6128 -24.5774
-17.3227 73.0103 -48.752
-16.1008 71.2526 -51.3355
-160.709 -8.67428 67.1319
-158.254 -5.14168 68.201
-159.178 -12.1837 67.0333
-155.584 -13.9468 67.7191
-181.216 -39.3675 -46.6225
-187.067 -34.8937 -47.3506
234.201 -8.19807 31.0077
231.367 -8.83955 33.3482
-185.723 -37.805 -45.736
-220.423 -36.3319 -21.8074
-223.2 -33.1947 -23.2994
-73.9986 69.7259 47.0308
-199.244 43.3749 -31.6597
-202.408 40.5201 -32.9586
-78.7793 72.0389 42.3624
-74.9109 71.8961 43.4501
-199.862 -47.1004 -25.2005
-196.405 -49.1626 -24.5821
-156.237 -38.5617 57.1704
-155.214 -34.6033 59.9758
-162.9 56.2665 -36.4585
-159.75 58.0944 -35.2791
245.94 -16.0777 8.95238
246.756 -13.0533 10.9096
-202.189 25.1252 -45.91
246.469 -16.6405 5.45938
-222.675 -40.7294 -3.81032
-219.564 -42.6764 -4.53595
-225.91 36.4555 -12.9115
-224.084 36.2151 -16.8754
-228.9 -34.8682 10.6501
-231.376 -33.5772 7.89168
-225.472 -37.7616 9.69458
119.561 74.8272 19.869
-172.163 -51.1024 -38.7774
115.365 75.6427 19.8177
47.9175 12.1748 -85.5258
51.5043 10.776 -85.4582
-180.22 -22.1734 57.2353
-179.936 52.3251 -32.2824
-165.449 0.848874 66.2718
-168.572 2.82682 65.2453
-181.019 -17.4154 58.5569
36.4521 -59.7535 63.3312
37.7864 -57.2066 65.5484
-159.984 -59.9393 -31.901
-182.767 -21.7976 -56.3847
-184.311 -18.0297 -57.0956
-11.932 15.1217 -86.5904
-188.59 -54.9978 19.1017
-192.466 -53.1211 19.6703
-145.931 9.34042 -71.0598
-143.733 12.1458 -71.1841
-174.356 52.4283 35.6844
-173.422 50.724 38.5871
-187.172 39.724 -43.3227
-231.495 33.4982 -7.79799
-229.09 35.9721 -4.95897
-234.902 30.8728 -5.9424
241.404 7.72104 23.4445
239.892 10.837 24.1019
240.609 13.402 21.8298
-138.878 -61.8299 -39.4933
-138.123 -60.1623 -42.294
-141.495 -58.2497 -43.5869
-200.351 -41.164 -33.6914
-218.715 20.117 -38.5058
-52.662 9.08177 85.5686
-56.6795 -81.1829 27.5685
-60.194 -81.4606 25.7791
-152.6 56.1713 41.6865
-153.36 58.0632 38.6417
-189.412 -9.89632 -57.0406
-186.064 -8.8787 -58.5375
64.9134 -8.70535 84.5714
67.8938 -7.06817 84.4375
-196.835 -37.219 40.1909
-200.415 -34.6094 40.3565
-180.668 -48.2454 -37.6848
-174.532 -52.0916 -36.0705
-215.618 -38.5089 23.8562
-218.655 -36.4148 23.7606
-178.254 -50.9816 -35.4219
-121.511 47.969 -60.2934
-71.1072 59.7452 59.6278
26.871 -68.2992 54.6883
24.8077 -66.5866 56.876
-87.1888 -8.57958 -82.0956
-84.0093 -6.2709 -82.708
-30.6594 85.9814 -15.3657
-34.4524 85.5184 -16.8903
-74.9276 60.2348 58.5528
-117.576 49.0147 -60.4075
67.0858 -10.9625 -84.1001
63.3363 -11.5695 -84.3743
-122.292 44.7623 -62.5249
-75.9651 64.2454 -53.9445
-79.5033 64.3958 -53.135
-210.937 -46.4387 -11.8318
-207.911 -47.2773 -14.7162
-70.3846 -66.905 51.5869
-82.2664 61.8965 -55.5359
181.003 57.5732 -20.4511
187.791 54.7432 -20.7267
-57.9901 -57.7667 -63.2083
-60.2506 -59.9481 -60.8751
185.028 56.5065 -18.9618
-52.2092 4.9666 85.9396
170.803 -60.9399 -21.4146
166.657 -61.8363 -22.7992
-242.161 -11.2305 20.9366
-241.443 -7.71426 23.3972
231.622 25.8611 -22.5153
229.371 25.1805 -25.8603
225.984 27.6877 -26.9257
-235.384 -18.9691 -24.5116
-234.849 -16.6286 -26.7382
-226.065 27.1655 -27.3713
-222.949 28.4628 -29.1261
-220.766 31.3777 -28.1505
-250.634 -7.29419 -0.178566
-176.041 45.3104 43.5525
58.6406 51.288 -68.5021
59.731 48.46 -70.4189
128.1 68.3811 32.5422
131.593 68.3043 30.9583
-176.923 47.6209 40.5459
-181.026 46.7563 39.3161
18.7048 -86.4179 15.2681
142.03 69.3641 -21.5147
141.089 68.3967 -25.0752
23.2385 -86.1703 15.8921
181.098 -44.0244 42.315
25.6367 -86.6619 12.3796
-189.025 21.6475 -53.8601
-189.445 17.9013 -55.0415
-212.326 -45.0144 14.0795
-120.846 -47.0017 -61.2118
-24.321 -37.2714 79.2617
52.3064 18.5497 -84.0532
55.8208 16.7621 -84.1519
-25.2918 -41.1207 77.2967
-119.138 -6.52776 -77.2245
-115.758 -7.74328 -77.7399
-200.047 16.4773 50.7245
-215.148 -43.2641 14.3203
-153.418 33.0624 61.394
-156.841 31.3735 61.2212
-157.697 28.2252 62.4715
-79.9678 -83.4309 0.602878
-62.9036 73.1056 -43.7622
-62.262 71.0525 -47.1268
-79.8045 -83.3553 -4.02115
-209.642 -18.6811 44.8803
-59.6125 71.6785 46.5952
-205.671 -19.6733 46.6699
-191.283 -46.3883 33.354
-190.153 -45.0076 35.9366
-195.129 47.3271 29.0268
-192.216 -42.638 37.4507
-97.6664 19.861 78.6238
-94.0667 21.0233 78.8587
-195.846 -41.872 35.984
-247.68 -8.81155 12.4834
188.065 -42.0217 40.5958
184.93 -44.2656 39.9695
-127.124 75.5181 7.90431
-123.478 76.055 9.64058
48.8498 1.70655 86.3072
130.445 15.596 -73.6037
-179.689 46.5311 -40.3213
198.595 13.1809 52.3605
200.49 9.43445 52.2853
113.337 74.8984 23.6978
109.593 75.3534 24.4007
149.554 63.745 -30.6961
145.723 65.3555 -29.5435
-166.875 -45.6692 -47.4232
129.84 19.3597 -72.8369
-209.8 43.7087 -21.0873
-206.939 46.132 -19.3105
126.465 20.2121 -73.3307
-61.8862 -0.287471 85.2937
-59.1677 2.62939 85.4896
[...]
POINT_DATA 10490
VECTORS F double
1.27829e-08 3.01329e-08 7.55626e-09
1.26751e-07 8.91684e-08 -4.25924e-08
1.3969e-07 7.06998e-07 3.31242e-07
5.73644e-08 -7.38526e-09 -2.64581e-08
2.85674e-07 2.57447e-07 -8.50654e-09
1.81374e-07 1.94257e-07 -6.28174e-09
8.37431e-08 2.59138e-08 -7.27843e-08
-1.89162e-06 2.28302e-06 1.19179e-07
9.50992e-07 7.23799e-07 1.47497e-07
1.03914e-06 6.25763e-07 -3.51796e-08
1.22305e-08 7.36082e-08 -4.12926e-08
1.07363e-08 5.77681e-08 -2.01316e-08
9.88483e-08 3.55083e-07 1.88309e-07
-2.335e-06 3.857e-06 1.26442e-07
1.40072e-07 1.16828e-07 2.23508e-09
3.34139e-06 6.53597e-07 -1.15661e-06
4.31354e-06 7.68692e-07 -2.01322e-06
-1.06763e-08 2.04686e-08 1.10924e-08
-1.25611e-08 1.98207e-08 1.28444e-08
-2.79102e-05 4.83204e-06 4.60781e-06
-2.70067e-05 4.10195e-06 3.19665e-06
-3.16564e-06 1.82244e-06 -2.70754e-07
-2.87688e-06 1.32397e-06 -2.24259e-07
3.07026e-08 2.17931e-07 -1.88499e-07
5.69983e-08 2.44641e-07 -2.24974e-07
1.51455e-08 1.66396e-07 9.83437e-08
-2.4059e-11 1.42082e-07 8.62894e-08
-4.47252e-08 1.88364e-07 2.4203e-07
-1.87668e-07 1.4543e-07 1.5136e-07
2.49544e-07 2.10005e-07 -1.92031e-07
5.65534e-07 2.5712e-07 1.14092e-07
3.74599e-07 2.82262e-07 -8.71831e-08
1.30977e-07 2.96797e-06 8.30135e-07
-2.90413e-07 1.58375e-06 4.35843e-07
-2.00927e-06 3.0401e-06 -2.15941e-08
1.42634e-08 2.85633e-08 5.92761e-08
9.26987e-05 1.75046e-05 3.5862e-05
0.00010115 2.06766e-05 4.26611e-05
3.92795e-08 5.15147e-10 -5.04174e-08
3.38234e-08 -2.64536e-09 -2.25557e-08
6.39962e-07 3.50682e-07 1.02924e-08
2.67804e-08 2.91322e-08 6.19862e-08
3.08901e-07 2.7987e-06 5.3124e-07
-1.51399e-06 3.63236e-06 -3.36449e-07
-2.10471e-08 1.25068e-08 -9.95678e-09
-3.58382e-08 3.24609e-08 1.48431e-08
1.28293e-06 8.73765e-07 -5.15023e-08
1.10635e-06 1.67157e-06 2.95101e-07
-5.20293e-08 1.0316e-07 -6.77897e-08
-4.53821e-08 1.16068e-07 -8.14548e-08
5.3096e-08 1.46455e-07 -5.44664e-08
6.98191e-08 1.55378e-07 -5.12725e-08
9.6834e-07 2.35547e-06 6.93092e-07
1.03742e-06 2.27814e-06 7.94432e-07
-4.02364e-08 9.81122e-08 9.23223e-10
-2.82618e-08 7.39538e-08 4.59869e-09
5.87661e-08 9.7055e-08 1.03142e-07
1.7672e-07 3.44105e-08 -6.60375e-08
-1.79371e-08 1.18238e-08 -1.7175e-08
-1.68914e-08 7.03257e-09 -1.5702e-08
-2.51519e-06 2.96313e-06 -2.34389e-07
-2.2941e-06 3.86852e-06 -1.73136e-07
1.29166e-08 8.69002e-08 7.17645e-08
-3.8512e-08 5.48631e-08 9.52435e-08
-1.11811e-08 1.24585e-08 7.24436e-10
1.25868e-05 6.1854e-06 2.44192e-06
-2.10278e-08 3.69464e-08 2.43836e-08
-4.34151e-07 4.84807e-06 -6.93596e-08
1.69919e-07 3.78704e-06 -1.77177e-07
-7.60992e-07 6.77757e-06 5.61271e-07
-3.33866e-06 5.27003e-06 9.78272e-08
-2.24517e-06 4.03466e-06 3.21865e-10
-1.25318e-06 2.10457e-06 -2.35651e-07
5.50385e-09 4.49454e-08 5.57022e-08
2.52812e-09 1.24523e-08 1.10117e-09
-3.33241e-09 4.25182e-09 -9.37995e-09
3.42717e-07 3.84212e-07 -2.60318e-07
9.50775e-07 1.56884e-06 -2.03794e-07
4.92268e-07 5.59021e-07 -3.67873e-07
1.00471e-09 2.89033e-08 2.98907e-08
-9.57953e-09 1.03418e-08 1.0622e-08
-2.82085e-09 1.06559e-08 2.29488e-09
1.95763e-08 1.5689e-08 3.9436e-08
2.63066e-08 6.10996e-09 4.14651e-08
1.35259e-08 3.39571e-09 2.50967e-08
1.6108e-08 1.82038e-08 3.76952e-08
3.85072e-08 3.35373e-08 8.24454e-08
2.3605e-07 2.9834e-07 -9.5719e-08
3.99398e-08 2.86381e-08 7.70475e-08
-2.33166e-07 4.73323e-06 -3.94065e-07
2.21102e-06 2.79205e-06 -2.59448e-07
2.04059e-06 3.26322e-06 -5.08124e-07
-2.47299e-08 1.91558e-07 1.76115e-07
-6.68257e-08 2.82187e-07 2.51301e-07
4.92297e-06 3.06183e-06 1.75245e-06
6.08245e-06 2.52792e-06 5.98852e-07
4.29266e-07 3.38894e-07 -4.4026e-07
1.29788e-06 5.83591e-07 -3.31854e-07
2.71624e-05 1.96552e-05 1.969e-05
2.13537e-06 1.7265e-06 1.53892e-07
1.88789e-06 4.38007e-07 -9.5274e-08
2.61271e-05 2.21351e-05 2.43819e-05
-9.90743e-07 3.17568e-07 -6.47043e-08
-1.05164e-06 3.55646e-07 -1.02517e-07
3.5566e-09 1.30065e-08 3.60588e-08
-5.0165e-10 1.80684e-08 3.9386e-08
1.01737e-06 5.43381e-07 9.58533e-08
1.00289e-06 6.76817e-07 -5.41106e-08
6.05624e-08 8.43247e-08 -2.0054e-08
4.64188e-05 2.29374e-05 -3.45598e-05
4.69194e-05 2.27434e-05 -3.78003e-05
3.46447e-08 8.69093e-08 1.60867e-08
4.4092e-08 -2.26238e-08 2.75519e-09
4.44076e-07 3.80442e-07 2.29881e-07
2.21471e-07 1.41364e-07 1.015e-07
6.71936e-07 3.65635e-07 -2.80454e-07
8.08569e-07 3.85561e-07 -2.99097e-08
-6.64817e-09 1.174e-07 -1.07522e-08
1.25412e-07 1.62576e-07 -6.16825e-08
3.88031e-07 2.41371e-06 -8.24904e-07
1.26941e-06 9.50871e-07 5.28395e-08
7.92255e-09 -1.88346e-09 -1.18367e-08
-1.40947e-09 -5.93655e-10 1.1493e-08
2.68569e-05 7.49544e-06 8.13979e-06
2.82169e-05 9.23654e-06 1.20792e-05
-4.36838e-08 4.97913e-08 -1.02457e-07
-2.98087e-08 6.43048e-08 -1.25313e-07
1.35076e-06 1.0277e-05 2.43737e-06
1.26475e-07 1.56161e-07 -2.20868e-07
1.23384e-07 1.81625e-07 -2.38457e-07
3.98196e-08 1.47482e-07 1.68962e-07
8.62738e-08 2.37641e-07 2.6649e-07
2.44782e-06 7.45159e-07 -4.25838e-07
-4.37835e-07 6.29385e-06 1.00717e-06
-2.29904e-06 3.49293e-06 5.63267e-07
7.13055e-07 8.32175e-08 -2.61071e-07
2.43101e-07 5.75225e-07 3.52786e-07
3.0238e-07 8.90687e-07 5.22797e-07
-6.26244e-08 8.13026e-08 -1.32269e-07
-6.1463e-08 5.88223e-08 -9.74671e-08
1.23615e-07 2.35892e-07 -1.70724e-07
2.63938e-08 1.49109e-07 -1.01201e-07
-4.51189e-05 1.86723e-05 -2.53507e-05
-4.01886e-05 2.01414e-05 -2.53681e-05
2.67476e-06 1.19322e-06 1.54284e-07
2.32311e-06 1.37453e-06 -3.77437e-08
-5.34472e-07 1.27916e-07 1.24654e-08
-1.34909e-06 7.00423e-09 4.5671e-07
-1.01514e-06 8.69089e-07 -1.27879e-07
9.50494e-07 1.03448e-06 7.90137e-08
2.44757e-07 2.72158e-07 2.88958e-08
4.54331e-05 3.6198e-05 5.34656e-05
-5.67215e-06 2.7241e-06 1.45352e-06
5.16215e-05 3.40992e-05 5.39087e-05
-2.30031e-09 7.61863e-09 -8.99161e-09
-1.49641e-09 5.96159e-09 -6.71939e-09
0.000107571 4.47186e-05 9.2786e-05
9.54026e-05 4.88792e-05 9.37178e-05
-7.17649e-10 -5.76934e-10 1.26272e-09
-1.23743e-09 5.98469e-10 2.58335e-09
3.77587e-07 5.5112e-07 -4.36474e-08
3.19722e-07 6.07632e-07 -1.1833e-07
3.9682e-05 3.09482e-05 -3.63896e-05
4.12105e-05 3.06874e-05 -3.89361e-05
1.99127e-07 7.72072e-08 -1.04823e-07
-4.00035e-09 -1.7228e-09 6.67642e-09
2.41373e-07 1.91632e-07 -1.95719e-07
1.01565e-08 1.2845e-07 -1.04173e-07
2.24247e-07 3.57763e-08 -8.19466e-08
-2.73708e-10 1.33607e-07 3.51594e-08
5.55777e-07 2.96547e-07 1.15763e-07
5.97056e-07 3.21963e-07 4.34259e-08
9.54296e-08 1.37852e-07 1.29372e-07
9.04425e-08 4.19386e-09 -5.43543e-08
2.0961e-06 3.81959e-06 -3.07585e-07
3.15742e-05 4.86624e-06 -1.90364e-06
-3.92105e-08 2.71921e-07 7.59975e-08
-7.21412e-08 3.71621e-07 1.0125e-07
2.76922e-05 4.64153e-06 -5.88164e-06
2.96526e-05 5.0743e-06 -6.03152e-06
4.75168e-08 9.31005e-08 -2.80212e-08
6.67789e-08 1.87618e-07 -3.81132e-08
-6.17505e-06 3.51838e-05 6.2941e-05
-2.95472e-05 3.05248e-05 4.93169e-05
0.000240824 1.26074e-05 3.73846e-05
0.000215179 1.56245e-05 4.20494e-05
-3.07463e-05 2.29804e-05 3.57127e-05
2.98196e-07 2.22765e-07 3.95449e-09
8.68353e-07 4.71542e-07 -1.4737e-07
1.05004e-07 1.8001e-07 -5.11309e-08
7.8109e-07 5.9793e-07 1.39359e-07
6.87988e-08 2.04818e-07 -6.16766e-08
8.15945e-08 1.7245e-07 2.87422e-09
4.16939e-07 -1.83004e-07 3.98986e-07
4.2901e-07 3.14527e-07 -2.68378e-07
3.94767e-07 3.99319e-07 -3.36254e-07
5.99355e-05 2.01802e-05 3.4187e-05
6.42942e-05 1.89775e-05 3.32797e-05
6.94023e-07 -4.04983e-08 4.7899e-07
5.11175e-07 2.92036e-07 1.43307e-08
-6.96088e-08 3.30996e-08 3.16093e-09
-9.8147e-08 5.36974e-08 1.92805e-08
2.17321e-05 4.74685e-05 7.01429e-05
1.82611e-06 4.29051e-05 5.94814e-05
7.36325e-07 4.2048e-07 2.70141e-07
9.02573e-07 3.48892e-07 2.82712e-07
1.92503e-07 1.57163e-07 8.45301e-08
3.0899e-07 3.70989e-07 1.63319e-07
1.01092e-07 9.83697e-08 -1.3117e-07
1.14687e-07 7.66051e-08 -1.11924e-07
1.47935e-09 9.89268e-09 1.24724e-09
1.09413e-09 9.67923e-09 1.63674e-09
8.72987e-08 6.30163e-08 -9.54907e-08
3.50559e-09 2.799e-09 -8.99987e-09
-1.2264e-09 4.91438e-09 -5.56416e-09
3.26532e-05 1.44567e-05 -1.51428e-05
7.85159e-07 6.29205e-07 2.57071e-07
8.181e-07 5.92558e-07 1.13389e-07
2.78555e-05 1.00946e-05 -1.08242e-05
3.14409e-05 1.42929e-05 -1.70137e-05
4.0373e-09 1.38346e-08 -2.97773e-08
3.31115e-10 7.45843e-09 -1.52416e-08
6.72728e-08 2.64022e-07 2.00592e-07
2.00047e-07 2.45081e-07 2.04784e-07
1.54283e-06 1.098e-06 8.50562e-07
1.92228e-06 9.94941e-07 5.72691e-07
1.85166e-09 6.79895e-09 5.98809e-09
5.81216e-10 7.2599e-09 7.08186e-09
3.27439e-07 2.31446e-07 -4.98883e-08
5.32532e-10 2.85952e-09 5.78351e-09
-2.8182e-08 1.98259e-08 -1.02837e-08
-2.14138e-08 9.9039e-09 3.37158e-08
3.09675e-07 2.36421e-07 4.15724e-09
4.00889e-07 3.11713e-07 1.72067e-08
1.24018e-08 -1.74795e-09 2.69133e-08
-2.2723e-09 1.15516e-08 4.09975e-08
1.84392e-09 -5.44222e-09 -1.5944e-08
-1.9056e-06 1.94717e-07 6.70566e-07
5.13738e-08 -1.98849e-08 -1.72057e-09
-1.97595e-06 2.45107e-07 4.72699e-07
5.85188e-07 1.38361e-06 2.37102e-07
5.09705e-07 9.18982e-07 1.53491e-07
1.1092e-07 3.1647e-07 1.65364e-07
1.56837e-06 5.24163e-07 -2.20671e-07
4.62706e-07 2.06174e-07 1.38785e-07
4.74485e-07 2.89131e-07 1.37562e-07
1.52629e-07 3.4248e-07 1.59624e-07
-3.76458e-08 1.86772e-07 1.78873e-07
-1.74952e-08 1.97678e-07 1.73756e-07
4.18308e-08 1.14664e-08 -4.72289e-08
6.90702e-08 6.38231e-08 -5.20839e-08
2.23205e-07 1.22446e-07 -1.26881e-07
8.32855e-07 9.04729e-06 1.56592e-06
6.93208e-09 9.59269e-09 3.59989e-08
1.96536e-09 8.3329e-09 2.48583e-08
1.08262e-06 7.48697e-07 -1.73789e-07
7.93748e-07 1.08632e-06 -1.08673e-08
1.79019e-06 1.14038e-06 -6.04567e-07
1.28121e-06 8.9248e-07 -4.68223e-07
1.06998e-06 1.03726e-06 3.8513e-07
3.56122e-07 3.00312e-07 -4.28286e-09
3.28747e-07 2.66657e-07 7.49292e-08
2.80925e-07 2.21319e-07 -2.09765e-07
-1.13301e-08 1.88618e-08 8.07079e-09
-7.68188e-09 2.36184e-08 -1.25753e-09
-8.01635e-09 2.30874e-08 -3.35418e-09
7.26572e-08 2.87106e-08 -7.62295e-08
1.33778e-08 5.50901e-08 -8.37135e-08
7.339e-08 1.12262e-07 -1.79196e-07
-1.11151e-08 6.55392e-08 -7.19828e-08
1.30596e-07 2.03215e-07 1.53477e-08
3.19401e-06 5.90683e-06 -3.8626e-07
2.47524e-08 1.92892e-08 6.30343e-08
1.80127e-08 1.87591e-08 6.4429e-08
1.03237e-06 1.87873e-07 2.09531e-07
3.43523e-06 1.13685e-06 -3.90598e-08
1.4064e-07 2.48555e-07 -1.00301e-07
1.89238e-07 1.45319e-07 -9.56837e-08
1.77415e-07 5.56623e-07 4.06225e-08
1.38674e-10 9.84159e-07 8.2368e-08
2.04097e-08 7.20542e-08 7.89637e-08
1.50791e-08 7.32735e-08 7.20068e-08
2.10675e-08 2.33093e-08 -4.22066e-08
1.85437e-08 4.09385e-09 -1.68984e-08
1.54827e-08 3.34631e-09 2.25358e-08
1.76263e-08 1.22238e-08 3.8594e-08
1.49285e-08 1.76296e-08 -3.45718e-08
7.75308e-06 4.07843e-06 1.33179e-06
2.61519e-05 1.94642e-05 -1.56843e-05
-4.45739e-09 2.14337e-07 2.67949e-07
-1.13192e-07 1.73676e-07 2.09373e-07
8.2069e-07 1.62012e-06 -2.76025e-07
7.22633e-07 1.92045e-06 -2.35472e-07
0.000172406 1.4005e-05 3.62497e-05
0.000156123 1.62872e-05 4.3475e-05
2.41722e-05 1.70851e-05 -1.37888e-05
7.73212e-06 5.62231e-06 2.7194e-06
-8.42629e-07 6.80103e-07 -1.70944e-07
-8.69791e-07 5.68018e-07 -1.57824e-07
5.04478e-06 4.04278e-06 1.68624e-06
2.48696e-05 1.80635e-05 1.72251e-05
2.24774e-05 1.44411e-05 1.3384e-05
1.20366e-09 -5.99094e-09 2.08837e-08
-2.10012e-08 1.54802e-08 -1.34072e-08
-1.35863e-07 6.38385e-08 6.00991e-08
2.11094e-05 1.44827e-05 1.2313e-05
-1.83576e-07 5.47753e-08 -4.47198e-08
-1.44695e-07 6.92882e-08 2.24946e-08
-4.52591e-07 2.78358e-07 -2.03557e-07
-2.7915e-07 1.57976e-07 -1.21744e-07
-1.80249e-07 6.96129e-08 -7.89618e-09
1.06656e-06 5.40473e-06 -2.33025e-07
9.35785e-09 5.2489e-09 -5.79978e-09
9.74516e-09 7.03189e-09 -1.03501e-08
-1.39676e-08 3.26775e-08 -2.24787e-09
7.25465e-09 2.29564e-08 1.67372e-08
-4.76205e-09 1.31102e-08 9.05773e-09
-1.4097e-08 2.66542e-08 1.06443e-08
-1.7415e-08 2.30792e-08 5.83705e-09
-3.19499e-08 5.57143e-08 -5.55517e-09
4.44094e-08 3.02631e-09 -4.96374e-08
2.7285e-07 3.19943e-07 4.16359e-08
2.7651e-07 1.55543e-07 -1.07133e-07
2.01994e-07 1.91241e-07 1.92217e-08
-2.2849e-08 9.64422e-08 -1.35294e-08
9.63875e-07 4.67267e-07 -9.13587e-09
-3.92459e-06 3.31159e-06 2.06809e-06
-2.72231e-06 3.40369e-06 2.0596e-06
-9.91945e-07 4.48453e-08 3.83819e-07
-8.55429e-07 -6.30114e-08 5.84196e-07
1.52329e-06 7.3722e-07 -5.2073e-08
1.3895e-06 2.57036e-07 4.77605e-07
-1.45072e-08 9.44666e-09 5.56415e-08
-4.6047e-07 -1.99966e-08 -4.36636e-07
-8.02369e-07 5.66097e-08 -3.98318e-07
-4.48441e-09 6.58654e-10 4.37154e-09
-1.10607e-08 6.39098e-09 1.24455e-08
-1.07734e-08 -7.19799e-10 -2.30538e-09
1.71376e-07 5.05165e-07 1.294e-07
1.31514e-07 4.91885e-07 1.04558e-07
-2.70241e-08 2.20862e-08 2.07186e-08
3.4421e-07 2.41522e-07 -2.68652e-07
-5.74413e-08 2.59584e-07 1.19906e-07
-1.49983e-06 2.00782e-06 3.28836e-07
-1.42505e-06 1.92732e-06 2.68168e-07
-1.50207e-07 2.36799e-07 1.19956e-07
-9.37502e-08 1.05937e-06 -7.18408e-08
-3.28295e-08 1.1187e-06 -1.05443e-07
3.15775e-07 5.90875e-07 -3.94694e-08
-2.59988e-08 2.67075e-08 3.2865e-08
1.59046e-06 2.67374e-06 -9.53298e-07
1.83334e-06 1.88318e-06 -3.90025e-07
-1.5054e-07 2.08697e-06 -9.89439e-07
-3.2292e-08 3.71685e-09 -1.00503e-08
3.6835e-05 2.52471e-05 3.56935e-05
2.88117e-05 2.44757e-05 3.22414e-05
7.41669e-09 -2.62157e-10 -1.25971e-08
3.1136e-09 7.76355e-08 3.40965e-08
4.22012e-05 2.4923e-05 -3.17295e-05
1.51011e-08 1.33017e-07 6.42199e-08
2.43002e-08 2.77009e-08 5.55886e-08
4.04911e-08 2.35506e-08 5.57271e-08
3.61141e-07 3.73594e-07 -3.11903e-07
2.63102e-08 2.38532e-08 4.36895e-08
2.77389e-06 6.19693e-06 -1.14354e-06
3.79625e-06 3.8745e-06 -4.78516e-07
1.30436e-08 6.63115e-08 8.5853e-08
-1.27656e-08 7.27775e-08 2.03655e-08
-2.5004e-08 1.34031e-08 2.80555e-08
-1.30044e-08 3.26983e-10 7.72894e-09
7.19016e-06 1.52674e-06 -4.28771e-07
9.12545e-06 2.26548e-06 -3.56272e-06
-2.45846e-06 2.01188e-06 1.30576e-07
-1.56284e-07 3.5658e-07 4.16453e-08
2.44184e-06 9.67635e-07 -2.15614e-07
-5.71851e-08 7.63833e-08 7.32606e-09
-2.34181e-08 8.95951e-08 -5.17218e-09
-1.67972e-06 8.55381e-08 7.13165e-07
-1.92959e-06 4.56115e-07 -3.47531e-07
-8.54529e-07 2.04832e-07 -8.43557e-08
-1.00228e-06 1.21098e-07 -3.37378e-07
-7.38268e-08 9.86527e-08 -6.31986e-08
-4.10536e-07 3.45517e-07 2.2375e-09
4.927e-07 1.64092e-07 -2.60025e-07
4.92047e-07 1.82635e-07 -2.09268e-07
-4.30644e-07 3.53987e-07 6.64144e-09
6.70808e-07 4.92098e-06 7.61723e-08
1.77197e-06 4.18168e-06 2.15299e-08
1.18719e-06 3.66549e-06 1.74557e-07
1.325e-08 1.53893e-08 5.51219e-08
7.61689e-06 1.6357e-06 3.00406e-07
8.49101e-06 1.81888e-06 -1.19953e-06
-1.49143e-06 6.41292e-06 -1.11842e-06
1.27201e-08 -2.10627e-09 1.50765e-08
1.96734e-06 4.17851e-06 6.63216e-08
3.45565e-06 8.387e-06 4.48144e-06
4.80982e-06 5.91615e-06 2.57141e-06
9.3602e-06 8.14371e-06 3.83539e-06
1.05597e-07 4.09371e-07 6.85237e-08
7.18121e-08 5.32823e-07 4.91844e-08
-3.04504e-07 1.4961e-06 1.70591e-07
-6.16774e-08 8.2475e-07 9.76627e-08
6.74863e-07 2.94026e-07 1.49543e-07
3.45006e-07 5.24264e-07 1.03963e-07
1.90877e-06 6.44262e-07 -3.18561e-08
2.55187e-06 1.07009e-06 3.96166e-07
-3.64125e-08 8.75565e-10 2.804e-08
-3.10608e-08 -2.51603e-09 1.42373e-08
7.43544e-08 1.86425e-08 -8.1036e-08
5.84876e-08 8.50732e-09 -4.92178e-08
-2.15444e-08 7.0524e-08 1.06159e-07
1.4462e-08 5.78223e-08 1.13137e-07
-1.5644e-08 5.96894e-08 9.92476e-08
2.63275e-07 1.00136e-07 2.02169e-07
3.95592e-07 2.42103e-07 -6.61964e-08
5.60641e-07 2.6399e-07 1.41113e-07
2.30429e-08 7.50822e-08 -8.1706e-08
1.24615e-08 7.65673e-08 -7.80058e-08
-4.46692e-08 5.75434e-07 -3.32568e-07
2.98214e-08 3.33499e-07 -1.97686e-07
-4.07432e-07 3.12861e-06 -5.67363e-07
-1.01622e-06 2.26572e-06 -4.16374e-07
-1.46502e-08 6.32166e-08 -5.58364e-08
2.05341e-07 -7.30174e-09 -3.97712e-08
-2.01837e-08 5.02429e-09 1.161e-08
1.31806e-08 3.32489e-08 -5.12267e-08
-1.53438e-06 3.87377e-06 -1.68104e-07
-7.94798e-08 3.64592e-07 -2.70718e-07
-1.41023e-07 3.15847e-07 -2.22671e-07
2.06222e-05 3.04362e-05 2.9931e-05
1.66114e-06 8.62144e-07 1.26623e-06
8.50828e-05 7.49291e-06 5.84081e-06
9.5958e-05 7.88489e-06 -6.53619e-06
7.72817e-05 8.09453e-06 -1.56913e-05
9.23982e-05 7.71685e-06 -2.95732e-06
1.83287e-06 8.41494e-07 1.22687e-06
1.98438e-05 2.49056e-05 2.36807e-05
1.88494e-05 2.47437e-05 2.16238e-05
4.53423e-08 2.91923e-08 -8.11551e-08
-2.52761e-08 5.72627e-09 -2.88731e-08
-1.26853e-08 4.72868e-09 -5.14321e-08
5.09417e-08 1.83625e-08 -6.72746e-08
2.28598e-08 8.55098e-09 -3.29817e-08
1.37877e-07 2.44012e-07 8.70674e-08
1.0041e-07 3.64004e-07 2.19592e-07
-6.07183e-07 7.65532e-08 2.31384e-07
-2.27633e-05 9.46582e-06 -9.23926e-06
-2.36986e-05 9.8116e-06 -1.02719e-05
-8.67049e-07 7.69206e-07 -2.13577e-07
2.11635e-07 2.02535e-07 -1.64656e-07
3.56143e-07 3.82966e-07 1.068e-07
1.86473e-07 5.15813e-07 -2.72977e-07
1.75429e-07 2.14924e-07 -1.44238e-07
1.23352e-07 4.5009e-09 7.35265e-08
1.01015e-07 5.37202e-08 1.2947e-07
6.33544e-08 3.21943e-08 8.33598e-08
1.17293e-06 1.57442e-06 -1.07696e-07
1.299e-06 1.78143e-06 -1.10448e-07
-4.92133e-05 1.96174e-05 -2.93345e-05
-9.22491e-08 1.96676e-07 4.3986e-09
3.29921e-08 6.24993e-09 2.13245e-08
-2.91483e-08 6.71189e-08 1.2167e-07
6.21644e-07 1.89908e-06 -2.01556e-07
6.48096e-07 1.34126e-06 -1.66006e-07
-5.18978e-08 8.79683e-08 -1.59932e-09
1.17178e-07 1.86299e-07 4.05227e-09
-1.03593e-07 1.57472e-07 -1.13875e-08
-1.62534e-05 6.94892e-07 -1.31936e-06
2.99895e-09 1.0414e-07 -5.02261e-08
-3.10171e-09 8.8624e-08 -4.39306e-08
-9.31333e-06 -4.05815e-07 -2.19757e-06
7.85612e-07 7.30201e-07 -2.57703e-07
-1.31467e-05 2.55342e-06 1.84253e-06
-1.12223e-08 1.02268e-07 1.49409e-09
1.63744e-06 6.04005e-07 1.36582e-07
1.81066e-06 4.79063e-07 4.65652e-07
2.48263e-09 6.72874e-08 -3.52821e-08
-9.44028e-09 7.9323e-08 2.35473e-08
1.13012e-07 2.02943e-07 -1.22256e-07
1.78673e-08 -1.04842e-08 -1.77648e-08
1.76272e-08 4.63749e-10 -3.67742e-08
4.41037e-07 4.61873e-07 -1.25428e-07
5.50146e-07 3.88193e-07 6.64363e-08
2.65848e-06 2.10686e-06 8.42202e-07
3.24833e-05 2.73171e-05 3.4944e-05
2.49471e-05 2.70656e-05 3.23397e-05
1.69845e-08 7.90822e-10 1.90891e-09
-1.51136e-08 2.53662e-10 -1.59488e-08
2.4627e-05 2.6252e-05 2.93199e-05
3.54604e-07 9.54221e-08 1.52325e-07
1.7866e-07 1.42412e-07 1.30986e-08
-2.196e-08 5.5587e-08 -1.99343e-09
-1.02246e-07 1.95967e-07 1.76083e-07
-9.23116e-08 2.1511e-07 1.76785e-07
-4.85801e-07 3.39944e-06 2.862e-07
-9.66864e-08 4.11105e-08 3.85306e-08
-2.56203e-08 1.20824e-07 9.47101e-08
-4.14842e-05 3.53795e-05 -5.78062e-05
-2.973e-05 3.14976e-05 -4.72078e-05
-6.37845e-07 3.39625e-06 2.99327e-07
1.0539e-06 1.19311e-06 -2.35297e-07
-2.23316e-07 2.88449e-06 3.81275e-07
-2.68159e-09 -3.54139e-09 -2.3409e-08
2.69507e-07 7.51153e-07 -2.02899e-07
5.00519e-06 3.57175e-05 -3.48574e-05
3.68581e-07 4.97202e-07 -6.35194e-08
9.10246e-07 6.1611e-07 6.29605e-07
5.94497e-08 1.04515e-07 -5.29902e-08
-3.27611e-08 4.72138e-08 2.96111e-08
8.77896e-09 2.16361e-09 -3.7016e-09
-4.03591e-09 3.22658e-09 -2.06515e-08
-1.80211e-05 2.09371e-05 -2.05972e-05
-3.0307e-08 6.24064e-08 9.68571e-08
1.27582e-06 4.8197e-07 -1.6982e-07
-5.36743e-09 -2.64286e-09 1.89688e-09
6.66532e-08 1.30625e-07 1.42622e-07
2.17048e-08 9.5816e-10 2.22714e-08
1.48526e-05 2.47283e-05 -1.81399e-05
2.59773e-07 8.67372e-08 -1.03217e-07
1.41077e-05 2.53559e-05 -2.08146e-05
0.000340244 4.11251e-06 -6.01357e-05
0.000316379 7.70921e-06 -6.51895e-05
1.49683e-08 9.78172e-08 9.34021e-08
0.000160225 4.35674e-05 -0.000121646
1.28566e-08 1.10291e-07 8.96964e-08
-4.83206e-08 6.3188e-08 1.2148e-08
-5.65259e-08 4.58951e-08 -5.42376e-09
4.22445e-08 1.52041e-07 1.27976e-07
1.03886e-06 1.07159e-06 -3.40478e-07
1.42919e-08 5.69573e-10 -9.75397e-09
3.41093e-07 2.66256e-07 -9.19448e-08
3.44296e-05 3.47508e-05 -3.76914e-05
3.43501e-07 1.8735e-07 7.33566e-08
3.47431e-07 1.50347e-07 1.35234e-07
3.5463e-07 1.79215e-07 1.14495e-07
3.25777e-05 2.83989e-05 3.99993e-05
-8.48174e-08 4.56046e-08 -1.64115e-08
-7.43558e-08 3.90212e-08 -4.39022e-08
-1.64874e-07 9.71052e-08 -8.35897e-09
-2.92603e-07 2.46327e-07 -6.4561e-08
3.71257e-05 3.26811e-05 4.52077e-05
7.42669e-06 3.46946e-06 -8.80452e-07
2.7681e-06 4.67769e-06 -2.29593e-06
2.99302e-06 4.49897e-06 -2.03935e-06
0.000219228 8.92245e-06 -3.01479e-05
0.000206092 9.91078e-06 -2.81447e-05
4.12041e-06 3.44207e-06 -1.32619e-06