# vtk DataFile Version 2.0
S, Created by Mohamad Ibrahim Cheikh
ASCII
DATASET UNSTRUCTURED_GRID
POINTS 10490 double
-223.577 20.3392 -34.7912
-223.729 23.2856 -32.7653
-130.49 -29.3044 69.2859
-194.383 -37.8827 -41.023
-207.47 29.5089 40.0417
-235.876 27.3992 13.4741
-191.274 -39.7117 -41.0826
14.3954 -3.12073 87.8003
-191.064 39.2261 -41.6646
-193.404 36.936 -42.429
-251.146 3.21285 -3.38109
-251.007 5.46281 -0.71505
-204.326 29.3015 -42.1197
18.591 -1.49462 87.7465
-201.228 30.3644 -43.1793
-151.309 68.7441 -14.673
-148.51 69.9549 -12.2505
241.381 21.7607 -11.7086
240.378 24.3447 -8.78218
39.4023 72.9487 -47.2484
43.243 72.2354 -47.9282
45.4101 -3.1906 -86.4948
49.2728 -1.5045 -86.2815
-145.563 -45.4933 -55.5
-142.058 -46.9176 -55.4259
-191.797 -27.3634 49.915
-189.472 -30.0417 49.4599
-64.34 -67.8347 51.3385
-66.4819 -66.0152 53.3373
-121.227 -41.6782 -64.8668
-205.488 44.6085 24.1746
-208.43 41.8728 25.9208
-64.8751 -22.5733 81.9705
-61.2441 -23.9204 81.9305
44.302 4.2025 86.522
-201.398 -44.9173 27.5772
-51.6377 82.7242 -23.9634
-48.4509 82.4088 -25.7949
-109.541 -78.4117 -11.2489
-105.514 -79.2425 -10.0785
-195.493 42.642 35.3086
-200.947 -43.0029 30.8394
-54.4256 -15.3087 84.5398
3.50859 8.29668 87.5994
226.254 36.0726 -13.2454
223.493 37.2791 -15.458
-146.988 22.4279 -67.7926
-143.827 23.6949 -68.1903
-167.022 -43.0228 -49.7763
-163.503 -43.4776 -50.8008
-215.266 -7.15723 -44.9379
-215.166 -3.16131 -45.4523
-105.628 -17.6025 77.8984
-104.091 -21.1395 77.2696
-247.96 -12.5221 7.72452
-247.222 -12.2239 10.5723
-226.223 -18.8456 33.5144
-129.023 -40.8335 -63.5493
238.447 4.07567 -27.6836
236.191 2.11811 -30.1594
30.6651 -3.71278 -87.2645
26.6946 -1.97306 -87.4806
-224.96 -22.5393 32.2509
-47.6609 -75.8715 41.345
-235.553 -26.7705 15.3058
-110.145 51.2457 -60.2707
-237.919 -25.2889 13.1991
-16.8451 -1.43585 -87.7906
-20.0186 -3.98606 -87.6302
25.3003 7.57797 -87.225
27.3434 3.7487 -87.398
25.4356 1.74405 -87.5314
45.9628 -6.30873 -86.2876
-242.159 -16.9745 16.6264
249.587 -5.36889 -9.40942
249.11 -2.30248 -11.8808
-169.139 48.1696 43.8317
30.4644 -13.4702 -86.3072
-165.511 47.9417 45.7354
-244.371 -14.4428 14.9732
243.986 6.92807 20.1944
244.544 3.56449 20.2422
-218.53 -34.2526 26.9084
-142.145 -69.4109 21.2695
-139.63 -70.7397 18.7865
-221.095 -32.0562 27.0483
-157.97 -59.7996 33.3587
-205.036 32.4651 39.2819
-154.319 -61.3634 32.6027
21.3248 7.4073 87.3697
-119.052 18.5394 75.2665
-116.384 20.6286 75.2337
25.5778 -59.0309 64.6472
29.1122 -57.6591 65.6937
-134.503 55.0756 -49.9576
-136.781 52.5812 -51.8521
-177.089 57.9213 23.4448
-176.684 59.3969 19.8507
-69.6621 65.4552 -53.5302
-62.7348 16.9459 -83.5164
-66.353 16.9229 -83.1781
-66.137 67.0215 -52.1209
124.453 57.7492 50.1274
121.019 58.3557 50.4532
-132.441 -69.847 26.7938
-132.815 -68.0009 30.9876
-188.856 35.1244 46.2991
-185.109 37.2961 46.453
-232.726 13.1748 -30.6502
-59.3896 75.4459 40.2503
-60.7014 76.9571 37.0201
-231.927 16.799 -29.6015
-175.271 -46.9574 -42.1659
-178.786 -11.227 60.865
-181.797 -8.37447 60.2291
-195.815 53.7562 12.644
-198.367 52.0696 14.6691
-195.137 -6.40291 -55.1458
-196.109 -2.36281 -55.0444
-155.753 25.0721 64.3845
-159.452 22.4935 64.2281
-196.21 -54.5515 -7.39873
-193.182 -56.048 -5.79646
-90.8973 75.2997 -32.5945
-86.9016 75.6983 -33.0029
-39.2318 -78.9671 -36.3286
-42.7327 -77.654 -38.6043
-35.6942 20.6556 -84.6248
-119.249 -59.0764 -50.1297
-116.054 -58.3885 -51.825
-103.565 -58.9104 54.4097
-107.459 -57.2183 55.2838
-176.056 46.9138 -41.8122
26.9014 14.055 -86.3589
23.7698 15.8144 -86.1669
-175.598 44.5883 -44.5063
-89.443 -39.5864 72.0935
-93.312 -38.4461 72.1102
-1.70767 -75.0119 -46.0093
2.63137 -75.2483 -45.6162
-158.021 -33.1947 -59.8745
-154.736 -36.631 -58.9134
25.301 73.0586 48.2501
27.8293 71.0665 50.9777
-166.559 38.822 53.2955
-168.973 36.4497 54.0353
126.64 60.265 46.3533
124.986 62.2381 44.2478
55.9122 20.2637 83.3705
-158.142 12.6543 67.2459
-155.544 9.85906 68.4452
-43.5706 73.8409 -45.3774
70.8944 53.1025 -65.6414
-40.8514 75.501 -42.8869
222.064 -27.8282 -30.5325
225.276 -26.0123 -29.2252
-16.5512 80.0453 -36.0999
-19.3878 78.8116 -38.5579
247.477 -7.06407 13.9944
245.671 -9.07238 16.5073
-182.889 19.8595 57.0481
-181.348 22.703 56.5877
-55.2107 68.9286 51.1826
-52.9507 70.7987 48.87
-221.671 26.3878 -32.1198
245.288 -12.7014 14.7129
-123.334 -44.6584 -62.3482
-128.466 -46.8993 -59.3626
-126.781 -44.2465 -61.793
-219.064 -11.0522 41.7918
-206.364 49.8816 -6.48027
-208.048 48.5193 -9.5173
-173.562 -35.138 53.1156
-196.133 -34.8661 -42.6463
-56.8213 10.6711 85.0579
-99.1949 80.7214 4.83654
-149.825 -21.4658 67.3421
-153.216 -21.7108 66.3218
-105.365 79.8726 2.27027
-102.997 80.1024 5.36743
-208.259 -1.82458 -49.3014
-211.701 -0.424824 -47.5058
6.78696 76.8556 -42.797
8.31312 75.0886 -45.7956
-14.9052 86.1701 -17.0734
-18.7945 85.4889 -19.8089
12.0736 74.5151 -46.6224
-209.316 34.9096 -34.0773
-209.421 37.486 -31.1345
-243.668 12.292 -17.9914
-205.989 40.0965 -30.682
-237.951 16.7312 23.0644
-240.123 13.5369 22.3945
-198.667 34.6932 41.3307
-44.0874 -51.8575 -69.4034
-47.9328 -52.1751 -68.8511
-64.0723 78.6083 -32.5903
-60.9193 79.5858 -30.915
-198.899 37.6906 38.4707
-195.375 39.9871 38.3624
193.193 51.8481 -22.051
191.207 51.6129 -24.5774
-17.2998 73.058 -48.6814
-16.0984 71.2957 -51.2756
-160.708 -8.67386 67.1322
-158.253 -5.14133 68.2013
-159.178 -12.1835 67.0333
-155.584 -13.9465 67.7192
-181.216 -39.3674 -46.6226
-187.067 -34.8936 -47.3507
234.201 -8.19806 31.0077
231.367 -8.83954 33.3482
-185.723 -37.8049 -45.7361
-220.423 -36.3319 -21.8075
-223.2 -33.1947 -23.2995
-73.9661 69.7404 47.0156
-199.244 43.3755 -31.6594
-202.407 40.5206 -32.9585
-78.7515 72.049 42.3515
-74.8796 71.9104 43.4331
-199.862 -47.1004 -25.2005
-196.405 -49.1626 -24.5822
-156.237 -38.5614 57.1706
-155.214 -34.6031 59.976
-162.898 56.2676 -36.4576
-159.748 58.0954 -35.2785
245.94 -16.0777 8.95238
246.756 -13.0533 10.9096
-202.189 25.1254 -45.91
246.469 -16.6405 5.45939
-222.675 -40.7294 -3.81033
-219.564 -42.6764 -4.53592
-225.91 36.4558 -12.9115
-224.084 36.2154 -16.8754
-228.9 -34.8682 10.6501
-231.376 -33.5772 7.89172
-225.472 -37.7616 9.69456
119.559 74.8274 19.8697
-172.163 -51.1024 -38.7774
115.363 75.6429 19.8182
47.9181 12.1762 -85.5256
51.5048 10.7769 -85.4581
-180.22 -22.1731 57.2354
-179.934 52.3257 -32.2827
-165.449 0.849081 66.2719
-168.572 2.82711 65.2455
-181.019 -17.4151 58.5571
36.452 -59.7533 63.3313
37.7864 -57.2064 65.5486
-159.984 -59.9393 -31.9011
-182.767 -21.7975 -56.3848
-184.311 -18.0296 -57.0958
-11.9311 15.1308 -86.5889
-188.59 -54.9977 19.1017
-192.466 -53.1211 19.6703
-145.93 9.34117 -71.06
-143.732 12.1469 -71.1842
-174.354 52.4295 35.6838
-173.421 50.7249 38.5866
-187.171 39.725 -43.3223
-231.495 33.4985 -7.798
-229.09 35.9723 -4.9589
-234.901 30.873 -5.94261
241.404 7.72105 23.4445
239.892 10.837 24.1019
240.609 13.402 21.8298
-138.878 -61.8299 -39.4934
-138.123 -60.1622 -42.294
-141.495 -58.2495 -43.5871
-200.351 -41.1639 -33.6915
-218.715 20.1172 -38.5058
-52.6588 9.08769 85.5682
-56.6795 -81.1829 27.5686
-60.194 -81.4606 25.7792
-152.599 56.1715 41.6867
-153.357 58.0644 38.6417
-189.412 -9.89607 -57.0407
-186.064 -8.87855 -58.5376
64.9136 -8.70479 84.5715
67.8938 -7.06718 84.4376
-196.835 -37.2189 40.191
-200.415 -34.6093 40.3566
-180.668 -48.2454 -37.6848
-174.532 -52.0916 -36.0705
-215.618 -38.5089 23.8562
-218.655 -36.4148 23.7607
-178.254 -50.9816 -35.4219
-121.503 47.9731 -60.2921
-71.081 59.7647 59.6121
26.871 -68.299 54.6886
24.8076 -66.5864 56.8762
-87.188 -8.57796 -82.0959
-84.0086 -6.26898 -82.7082
-30.4876 85.9953 -15.33
-34.2968 85.5345 -16.8474
-74.9034 60.2518 58.539
-117.569 49.0203 -60.4048
67.0849 -10.9618 -84.1003
63.3354 -11.5689 -84.3744
-122.287 44.7663 -62.5232
-75.9403 64.2634 -53.9274
-79.4808 64.4102 -53.1217
-210.937 -46.4387 -11.8318
-207.911 -47.2773 -14.7162
-70.3848 -66.9049 51.5869
-82.2453 61.911 -55.5236
181.003 57.5733 -20.4511
187.791 54.7433 -20.7266
-57.9905 -57.7664 -63.2085
-60.2508 -59.948 -60.8753
185.028 56.5066 -18.9618
-52.2081 4.97201 85.9393
170.803 -60.9399 -21.4146
166.657 -61.8363 -22.7992
-242.161 -11.2304 20.9366
-241.443 -7.71423 23.3972
231.622 25.8611 -22.5153
229.371 25.1805 -25.8602
225.984 27.6877 -26.9257
-235.384 -18.969 -24.5116
-234.849 -16.6286 -26.7383
-226.065 27.1658 -27.3712
-222.948 28.463 -29.1262
-220.766 31.3779 -28.1505
-250.634 -7.29409 -0.17858
-176.04 45.3108 43.5525
58.6366 51.2914 -68.5
59.7283 48.4634 -70.4168
128.099 68.3811 32.5426
131.593 68.3043 30.9589
-176.921 47.6216 40.5459
-181.024 46.7566 39.3166
18.7048 -86.4179 15.2682
142.03 69.3641 -21.5151
141.088 68.3968 -25.0756
23.2385 -86.1703 15.8921
181.098 -44.0244 42.3151
25.6367 -86.6619 12.3796
-189.024 21.648 -53.86
-189.445 17.9018 -55.0414
-212.326 -45.0143 14.0796
-120.846 -47.0015 -61.212
-24.3211 -37.2712 79.2618
52.3049 18.5517 -84.0529
55.8193 16.764 -84.1517
-25.2919 -41.1204 77.2968
-119.138 -6.52671 -77.2246
-115.758 -7.74216 -77.74
-200.047 16.4779 50.7245
-215.148 -43.2641 14.3204
-153.416 33.0651 61.3931
-156.839 31.3754 61.2208
-157.697 28.2273 62.4705
-79.9678 -83.4309 0.602868
-62.8668 73.1307 -43.7267
-62.2331 71.0769 -47.0947
-79.8045 -83.3553 -4.02117
-209.642 -18.681 44.8803
-59.5703 71.7034 46.5636
-205.671 -19.6732 46.67
-191.283 -46.3883 33.3541
-190.153 -45.0075 35.9367
-195.129 47.3275 29.0265
-192.216 -42.6379 37.4508
-97.6636 19.8672 78.6227
-94.0629 21.0273 78.8582
-195.846 -41.8719 35.9841
-247.68 -8.81148 12.4834
188.065 -42.0217 40.5959
184.93 -44.2656 39.9695
-127.117 75.5196 7.90388
-123.469 76.0573 9.63702
48.8473 1.70857 86.3073
130.445 15.5964 -73.6037
-179.687 46.5321 -40.3215
198.595 13.181 52.3605
200.49 9.43454 52.2853
113.335 74.8985 23.6985
109.591 75.3539 24.4003
149.553 63.7452 -30.6962
145.722 65.3556 -29.5439
-166.875 -45.6691 -47.4233
129.84 19.36 -72.8369
-209.799 43.7088 -21.0875
-206.939 46.1322 -19.3107
126.465 20.2124 -73.3307
-61.8855 -0.282546 85.2938
-59.1659 2.63358 85.4897
[...]
POINT_DATA 10490
VECTORS F double
1.29504e-08 3.02868e-08 7.51572e-09
1.26527e-07 8.91474e-08 -4.24205e-08
1.4076e-07 7.09123e-07 3.32378e-07
5.72512e-08 -7.36516e-09 -2.64105e-08
2.85797e-07 2.57033e-07 -8.12433e-09
1.81011e-07 1.93798e-07 -6.12766e-09
8.35669e-08 2.58328e-08 -7.26063e-08
-1.90231e-06 2.31355e-06 1.20414e-07
9.49544e-07 7.21782e-07 1.46428e-07
1.03626e-06 6.24574e-07 -3.45942e-08
1.21886e-08 7.33907e-08 -4.11089e-08
1.06994e-08 5.75837e-08 -1.99864e-08
9.93683e-08 3.54194e-07 1.87386e-07
-2.34726e-06 3.89643e-06 1.27253e-07
1.40453e-07 1.17468e-07 2.4676e-09
3.35429e-06 6.60985e-07 -1.13807e-06
4.32757e-06 7.75354e-07 -1.99542e-06
-1.04803e-08 2.01358e-08 1.09705e-08
-1.23545e-08 1.95152e-08 1.26928e-08
-2.77312e-05 4.74408e-06 4.49321e-06
-2.67998e-05 4.08902e-06 3.20242e-06
-3.17252e-06 1.82998e-06 -2.71421e-07
-2.88282e-06 1.33102e-06 -2.24764e-07
3.07223e-08 2.17516e-07 -1.88163e-07
5.70507e-08 2.44261e-07 -2.24668e-07
1.53836e-08 1.66442e-07 9.84808e-08
2.23733e-10 1.42106e-07 8.64195e-08
-4.48519e-08 1.8918e-07 2.43085e-07
-1.88146e-07 1.46188e-07 1.52224e-07
2.49777e-07 2.09926e-07 -1.92032e-07
5.64829e-07 2.56734e-07 1.14066e-07
3.74591e-07 2.81684e-07 -8.62613e-08
1.34736e-07 2.97903e-06 8.33429e-07
-2.85431e-07 1.59769e-06 4.40337e-07
-2.02582e-06 3.07286e-06 -2.2262e-08
1.43469e-08 2.8538e-08 5.9311e-08
9.2359e-05 1.72545e-05 3.51978e-05
0.000100723 2.03725e-05 4.19226e-05
3.92639e-08 4.98092e-10 -5.02846e-08
3.3831e-08 -2.65669e-09 -2.24784e-08
6.40223e-07 3.50365e-07 1.0847e-08
2.68789e-08 2.91038e-08 6.20252e-08
3.07282e-07 2.81426e-06 5.33832e-07
-1.52768e-06 3.67552e-06 -3.40627e-07
-2.0772e-08 1.24128e-08 -9.63483e-09
-3.53833e-08 3.20994e-08 1.47797e-08
1.28459e-06 8.74755e-07 -5.16018e-08
1.11176e-06 1.66179e-06 2.9035e-07
-5.17956e-08 1.02937e-07 -6.76931e-08
-4.51421e-08 1.15829e-07 -8.1344e-08
5.30051e-08 1.46031e-07 -5.43446e-08
6.96886e-08 1.54949e-07 -5.11672e-08
9.71421e-07 2.3582e-06 6.94142e-07
1.04219e-06 2.28097e-06 7.95914e-07
-4.00959e-08 9.7814e-08 9.88223e-10
-2.81588e-08 7.37501e-08 4.65798e-09
5.88201e-08 9.68934e-08 1.03094e-07
1.76849e-07 3.46965e-08 -6.62535e-08
-1.75689e-08 1.15832e-08 -1.68226e-08
-1.6548e-08 6.88009e-09 -1.53829e-08
-2.52375e-06 2.97552e-06 -2.35173e-07
-2.30289e-06 3.88417e-06 -1.73637e-07
1.30454e-08 8.67471e-08 7.17666e-08
-3.8565e-08 5.51417e-08 9.57461e-08
-1.11143e-08 1.24318e-08 8.04477e-10
1.24747e-05 6.18607e-06 2.46864e-06
-2.09445e-08 3.68638e-08 2.441e-08
-4.25508e-07 4.86601e-06 -6.95857e-08
1.74551e-07 3.80788e-06 -1.7809e-07
-7.83164e-07 6.77877e-06 5.61119e-07
-3.34195e-06 5.28198e-06 9.85488e-08
-2.25472e-06 4.05172e-06 5.16575e-10
-1.2624e-06 2.1122e-06 -2.36755e-07
5.53796e-09 4.48474e-08 5.56606e-08
2.48833e-09 1.21928e-08 1.12064e-09
-3.2553e-09 4.15419e-09 -9.16261e-09
3.49062e-07 3.83997e-07 -2.57091e-07
9.49171e-07 1.57806e-06 -2.05271e-07
4.99025e-07 5.5908e-07 -3.64952e-07
1.04166e-09 2.88323e-08 2.98939e-08
-9.49202e-09 1.01823e-08 1.05486e-08
-2.82939e-09 1.04868e-08 2.33912e-09
1.96411e-08 1.56458e-08 3.94461e-08
2.64084e-08 6.14693e-09 4.16703e-08
1.35938e-08 3.4227e-09 2.52593e-08
1.61734e-08 1.81616e-08 3.77107e-08
3.86559e-08 3.36055e-08 8.26543e-08
2.36731e-07 2.97662e-07 -9.47266e-08
4.01094e-08 2.87091e-08 7.72778e-08
-2.61528e-07 4.77777e-06 -3.97255e-07
2.21946e-06 2.79354e-06 -2.58292e-07
2.0509e-06 3.26382e-06 -5.06491e-07
-2.46993e-08 1.93216e-07 1.77626e-07
-6.71152e-08 2.84591e-07 2.53425e-07
4.91263e-06 3.04166e-06 1.73394e-06
6.03618e-06 2.52075e-06 6.06746e-07
4.32976e-07 3.392e-07 -4.37602e-07
1.29723e-06 5.82756e-07 -3.30097e-07
2.70297e-05 1.95769e-05 1.96315e-05
2.12837e-06 1.77849e-06 1.65129e-07
1.87979e-06 4.86678e-07 -8.45711e-08
2.60138e-05 2.20366e-05 2.42952e-05
-1.02065e-06 3.27038e-07 -6.65328e-08
-1.0841e-06 3.71706e-07 -1.1157e-07
3.63953e-09 1.30662e-08 3.62663e-08
-3.90786e-10 1.81437e-08 3.96107e-08
1.01707e-06 5.43048e-07 9.59436e-08
1.00364e-06 6.7476e-07 -5.21076e-08
6.04237e-08 8.41864e-08 -1.99848e-08
4.6397e-05 2.2746e-05 -3.42541e-05
4.68706e-05 2.25546e-05 -3.74772e-05
3.46491e-08 8.67773e-08 1.6009e-08
4.40266e-08 -2.25613e-08 2.71889e-09
4.44758e-07 3.80831e-07 2.30194e-07
2.22121e-07 1.41756e-07 1.01794e-07
6.71086e-07 3.65038e-07 -2.79552e-07
8.07003e-07 3.8484e-07 -2.99596e-08
-6.43653e-09 1.17205e-07 -1.08198e-08
1.25154e-07 1.62262e-07 -6.15554e-08
3.9196e-07 2.40808e-06 -8.21647e-07
1.26868e-06 9.5297e-07 5.18654e-08
7.93677e-09 -1.90078e-09 -1.17575e-08
-1.37952e-09 -6.11415e-10 1.15356e-08
2.6881e-05 7.48382e-06 8.1112e-06
2.82413e-05 9.23406e-06 1.20757e-05
-4.36698e-08 4.98211e-08 -1.02522e-07
-2.97706e-08 6.43618e-08 -1.25433e-07
1.31686e-06 1.02471e-05 2.43315e-06
1.26543e-07 1.56025e-07 -2.20725e-07
1.23481e-07 1.81477e-07 -2.38314e-07
4.02566e-08 1.48191e-07 1.6983e-07
8.67585e-08 2.38546e-07 2.67539e-07
2.43642e-06 7.43527e-07 -4.21756e-07
-4.67088e-07 6.29712e-06 1.00705e-06
-2.31038e-06 3.52601e-06 5.6911e-07
7.18026e-07 8.8013e-08 -2.58664e-07
2.45319e-07 5.78326e-07 3.54819e-07
3.04248e-07 8.93275e-07 5.24457e-07
-6.26777e-08 8.14173e-08 -1.32454e-07
-6.15043e-08 5.88905e-08 -9.75793e-08
1.2362e-07 2.35619e-07 -1.70573e-07
2.65331e-08 1.48927e-07 -1.01132e-07
-4.49016e-05 1.87716e-05 -2.55408e-05
-4.0147e-05 2.01577e-05 -2.5418e-05
2.67273e-06 1.19124e-06 1.54903e-07
2.32204e-06 1.37152e-06 -3.61768e-08
-5.54309e-07 1.33871e-07 1.13522e-08
-1.3826e-06 1.17515e-08 4.61603e-07
-1.04512e-06 9.13423e-07 -1.36206e-07
9.52944e-07 1.03449e-06 7.97001e-08
2.48209e-07 2.73158e-07 2.97113e-08
4.59767e-05 3.58057e-05 5.28604e-05
-5.69567e-06 2.77413e-06 1.49109e-06
5.25998e-05 3.35616e-05 5.29499e-05
-2.27327e-09 7.44521e-09 -8.81061e-09
-1.48438e-09 5.81642e-09 -6.57747e-09
0.000111728 4.41275e-05 9.15739e-05
9.89647e-05 4.84199e-05 9.28775e-05
-7.3755e-10 -5.95927e-10 1.29865e-09
-1.25486e-09 5.62081e-10 2.59882e-09
3.78874e-07 5.51266e-07 -4.31992e-08
3.22052e-07 6.0742e-07 -1.17338e-07
3.97915e-05 3.08854e-05 -3.63389e-05
4.15695e-05 3.05399e-05 -3.87293e-05
1.98691e-07 7.72723e-08 -1.044e-07
-3.98313e-09 -1.72919e-09 6.63563e-09
2.41433e-07 1.91617e-07 -1.95722e-07
1.05692e-08 1.28431e-07 -1.04268e-07
2.24278e-07 3.59794e-08 -8.20993e-08
-1.37884e-11 1.33449e-07 3.52831e-08
5.54269e-07 2.95748e-07 1.15526e-07
5.95715e-07 3.21183e-07 4.30564e-08
9.57893e-08 1.37982e-07 1.29602e-07
9.02427e-08 4.19369e-09 -5.42406e-08
2.13385e-06 3.83196e-06 -3.06231e-07
3.13347e-05 4.83229e-06 -1.96938e-06
-3.85238e-08 2.72694e-07 7.64295e-08
-7.15162e-08 3.72275e-07 1.01638e-07
2.74777e-05 4.60144e-06 -5.75608e-06
2.94433e-05 5.03102e-06 -5.90895e-06
4.75233e-08 9.30081e-08 -2.80206e-08
6.6665e-08 1.87132e-07 -3.80464e-08
-3.57244e-06 3.59957e-05 6.45726e-05
-2.86768e-05 3.11243e-05 5.03958e-05
0.000239403 1.22204e-05 3.60877e-05
0.00021441 1.50078e-05 3.98626e-05
-3.00965e-05 2.32774e-05 3.62494e-05
2.98139e-07 2.22588e-07 3.81839e-09
8.65699e-07 4.70249e-07 -1.46729e-07
1.04676e-07 1.79465e-07 -5.09568e-08
7.7916e-07 5.95974e-07 1.38406e-07
6.87592e-08 2.04331e-07 -6.13732e-08
8.14988e-08 1.72045e-07 2.99182e-09
4.17298e-07 -1.81635e-07 3.98043e-07
4.29252e-07 3.15564e-07 -2.69169e-07
3.94906e-07 4.00374e-07 -3.37061e-07
5.9802e-05 1.99887e-05 3.38188e-05
6.41968e-05 1.87832e-05 3.28666e-05
6.93886e-07 -3.93625e-08 4.77782e-07
5.11981e-07 2.9182e-07 1.50532e-08
-6.97428e-08 3.33063e-08 3.50321e-09
-9.79654e-08 5.3629e-08 1.93116e-08
2.40609e-05 4.81059e-05 7.11478e-05
3.13329e-06 4.34051e-05 6.02321e-05
7.38043e-07 4.21247e-07 2.70738e-07
9.04865e-07 3.49445e-07 2.83401e-07
1.93819e-07 1.5773e-07 8.50155e-08
3.10426e-07 3.71603e-07 1.63846e-07
1.00927e-07 9.81147e-08 -1.30875e-07
1.14479e-07 7.64178e-08 -1.11686e-07
1.4026e-09 9.77593e-09 1.28907e-09
1.01504e-09 9.58813e-09 1.68008e-09
8.71508e-08 6.28459e-08 -9.52751e-08
3.50014e-09 2.76147e-09 -8.93205e-09
-1.21219e-09 4.87254e-09 -5.51906e-09
3.24779e-05 1.44313e-05 -1.5151e-05
7.84253e-07 6.27491e-07 2.55438e-07
8.16435e-07 5.91111e-07 1.12876e-07
2.77318e-05 1.00975e-05 -1.08647e-05
3.12968e-05 1.42741e-05 -1.70271e-05
4.03447e-09 1.37764e-08 -2.96662e-08
3.45327e-10 7.42053e-09 -1.51785e-08
6.77644e-08 2.64494e-07 2.01073e-07
2.00802e-07 2.45544e-07 2.05289e-07
1.54906e-06 1.09841e-06 8.47861e-07
1.92984e-06 9.94853e-07 5.68408e-07
1.78915e-09 6.66419e-09 5.95231e-09
5.35745e-10 7.11773e-09 7.03546e-09
3.2697e-07 2.31294e-07 -4.97171e-08
4.93122e-10 2.78072e-09 5.75031e-09
-2.81004e-08 1.97641e-08 -1.02105e-08
-2.13461e-08 9.86553e-09 3.36815e-08
3.09005e-07 2.35943e-07 4.25431e-09
3.99901e-07 3.10946e-07 1.7176e-08
1.24132e-08 -1.74402e-09 2.69556e-08
-2.23274e-09 1.15218e-08 4.10061e-08
1.86588e-09 -5.4351e-09 -1.58581e-08
-1.97687e-06 2.04807e-07 6.84995e-07
5.12863e-08 -1.98531e-08 -1.71419e-09
-2.05264e-06 2.57411e-07 4.80309e-07
5.76294e-07 1.39174e-06 2.37674e-07
5.0142e-07 9.25528e-07 1.53716e-07
1.11375e-07 3.16615e-07 1.65593e-07
1.56515e-06 5.24281e-07 -2.1826e-07
4.64302e-07 2.06826e-07 1.39263e-07
4.76087e-07 2.90053e-07 1.38026e-07
1.53417e-07 3.42702e-07 1.59985e-07
-3.78874e-08 1.88419e-07 1.80443e-07
-1.76541e-08 1.99461e-07 1.75322e-07
4.17984e-08 1.14139e-08 -4.71101e-08
6.90238e-08 6.37644e-08 -5.20426e-08
2.22739e-07 1.22251e-07 -1.26635e-07
8.06766e-07 9.06613e-06 1.57063e-06
6.98802e-09 9.58984e-09 3.60592e-08
2.01695e-09 8.32863e-09 2.49093e-08
1.08186e-06 7.49745e-07 -1.73451e-07
7.9814e-07 1.08349e-06 -1.24168e-08
1.78454e-06 1.13493e-06 -6.00003e-07
1.28193e-06 8.89568e-07 -4.64032e-07
1.06835e-06 1.03418e-06 3.832e-07
3.55114e-07 2.99491e-07 -4.13104e-09
3.27923e-07 2.65991e-07 7.47896e-08
2.80145e-07 2.20763e-07 -2.08854e-07
-1.1228e-08 1.85995e-08 8.02896e-09
-7.65254e-09 2.32843e-08 -1.14479e-09
-7.97655e-09 2.27698e-08 -3.21423e-09
7.26189e-08 2.86551e-08 -7.61267e-08
1.35045e-08 5.49791e-08 -8.36054e-08
7.33692e-08 1.12038e-07 -1.78887e-07
-1.10376e-08 6.53141e-08 -7.17651e-08
1.30386e-07 2.02718e-07 1.52372e-08
3.23435e-06 5.92265e-06 -3.85327e-07
2.48923e-08 1.9417e-08 6.34439e-08
1.81137e-08 1.88855e-08 6.4856e-08
1.05052e-06 1.94769e-07 2.08368e-07
3.42468e-06 1.13288e-06 -3.83019e-08
1.4047e-07 2.47975e-07 -1.0013e-07
1.88921e-07 1.45206e-07 -9.55428e-08
1.75255e-07 5.65593e-07 4.17451e-08
-2.50122e-09 9.95705e-07 8.35819e-08
2.05532e-08 7.204e-08 7.90369e-08
1.52153e-08 7.32609e-08 7.20779e-08
2.10637e-08 2.32259e-08 -4.20976e-08
1.85466e-08 4.05515e-09 -1.68431e-08
1.55339e-08 3.33571e-09 2.2574e-08
1.76655e-08 1.21956e-08 3.85951e-08
1.49313e-08 1.75536e-08 -3.44645e-08
7.70176e-06 4.07004e-06 1.33821e-06
2.62308e-05 1.94131e-05 -1.56335e-05
-4.42469e-09 2.15854e-07 2.6984e-07
-1.13824e-07 1.74969e-07 2.10918e-07
8.22023e-07 1.62363e-06 -2.7653e-07
7.22401e-07 1.92693e-06 -2.35887e-07
0.000171413 1.37219e-05 3.52374e-05
0.000155188 1.5949e-05 4.22942e-05
2.42441e-05 1.70206e-05 -1.37207e-05
7.69085e-06 5.57258e-06 2.68964e-06
-8.45734e-07 6.81081e-07 -1.71367e-07
-8.73843e-07 5.72056e-07 -1.58744e-07
5.02136e-06 4.03355e-06 1.6856e-06
2.47747e-05 1.79532e-05 1.71229e-05
2.24001e-05 1.43727e-05 1.33237e-05
1.22372e-09 -6.0087e-09 2.09101e-08
-2.09368e-08 1.54167e-08 -1.33134e-08
-1.36145e-07 6.42594e-08 6.05981e-08
2.10214e-05 1.44128e-05 1.22585e-05
-1.84254e-07 5.54612e-08 -4.35203e-08
-1.4497e-07 6.95378e-08 2.28533e-08
-4.52533e-07 2.79049e-07 -2.04193e-07
-2.78868e-07 1.58457e-07 -1.22252e-07
-1.80536e-07 6.99988e-08 -7.08288e-09
1.09037e-06 5.41735e-06 -2.32328e-07
9.23847e-09 5.16029e-09 -5.66388e-09
9.63166e-09 6.94285e-09 -1.021e-08
-1.3857e-08 3.25785e-08 -2.14716e-09
7.32854e-09 2.28841e-08 1.6804e-08
-4.6768e-09 1.29245e-08 8.95301e-09
-1.38452e-08 2.621e-08 1.04866e-08
-1.71198e-08 2.27278e-08 5.77952e-09
-3.18336e-08 5.55159e-08 -5.53814e-09
4.42597e-08 3.01632e-09 -4.94698e-08
2.72091e-07 3.19013e-07 4.14842e-08
2.75788e-07 1.55342e-07 -1.06651e-07
2.01767e-07 1.90883e-07 1.90402e-08
-2.27757e-08 9.61397e-08 -1.34467e-08
9.6559e-07 4.65883e-07 -6.85527e-09
-3.94253e-06 3.35787e-06 2.10113e-06
-2.74806e-06 3.4465e-06 2.08664e-06
-1.02174e-06 5.04298e-08 3.86425e-07
-8.80602e-07 -6.03448e-08 5.91391e-07
1.52218e-06 7.34812e-07 -4.98604e-08
1.38876e-06 2.58029e-07 4.7599e-07
-1.454e-08 9.50208e-09 5.5962e-08
-4.70666e-07 -1.72704e-08 -4.36067e-07
-8.17536e-07 6.04708e-08 -3.98217e-07
-4.48619e-09 6.92783e-10 4.56298e-09
-1.1154e-08 6.39098e-09 1.24931e-08
-1.07816e-08 -6.94226e-10 -2.1294e-09
1.71151e-07 5.03941e-07 1.2901e-07
1.31811e-07 4.90614e-07 1.04024e-07
-2.69424e-08 2.20559e-08 2.07713e-08
3.44115e-07 2.41363e-07 -2.68504e-07
-5.59271e-08 2.62647e-07 1.21402e-07
-1.50199e-06 2.01595e-06 3.3052e-07
-1.42743e-06 1.93221e-06 2.68998e-07
-1.4983e-07 2.39692e-07 1.21508e-07
-9.12881e-08 1.05903e-06 -7.22622e-08
-2.99615e-08 1.11908e-06 -1.05988e-07
3.16061e-07 5.89852e-07 -3.90069e-08
-2.59244e-08 2.66706e-08 3.28932e-08
1.59468e-06 2.66157e-06 -9.45589e-07
1.8323e-06 1.88196e-06 -3.89798e-07
-1.41203e-07 2.0852e-06 -9.8584e-07
-3.22972e-08 3.71826e-09 -9.89727e-09
3.68769e-05 2.50449e-05 3.53953e-05
2.89206e-05 2.42826e-05 3.19692e-05
7.4802e-09 -2.76418e-10 -1.24504e-08
3.35582e-09 7.75863e-08 3.42144e-08
4.21664e-05 2.47973e-05 -3.1581e-05
1.53632e-08 1.32993e-07 6.43501e-08
2.44015e-08 2.77037e-08 5.56629e-08
4.06138e-08 2.35478e-08 5.58028e-08
3.61888e-07 3.73074e-07 -3.1045e-07
2.64279e-08 2.3854e-08 4.3765e-08
2.79917e-06 6.1684e-06 -1.133e-06
3.7938e-06 3.93811e-06 -4.96056e-07
1.31579e-08 6.6289e-08 8.59042e-08
-1.26939e-08 7.25779e-08 2.03991e-08
-2.50637e-08 1.33891e-08 2.80743e-08
-1.30869e-08 3.3063e-10 7.78008e-09
7.20023e-06 1.52828e-06 -4.24804e-07
9.13403e-06 2.26643e-06 -3.55969e-06
-2.47584e-06 2.03978e-06 1.31171e-07
-1.57208e-07 3.55727e-07 4.12662e-08
2.42963e-06 9.63229e-07 -2.13994e-07
-5.75347e-08 7.62417e-08 7.52359e-09
-2.37209e-08 8.94382e-08 -5.00257e-09
-1.77068e-06 9.95538e-08 7.22054e-07
-2.03033e-06 4.78189e-07 -3.60368e-07
-8.6367e-07 2.08772e-07 -8.16179e-08
-1.01392e-06 1.24391e-07 -3.37105e-07
-7.3583e-08 9.84354e-08 -6.30936e-08
-4.1162e-07 3.45007e-07 1.86849e-09
4.91965e-07 1.64135e-07 -2.59035e-07
4.916e-07 1.82651e-07 -2.08638e-07
-4.31936e-07 3.54354e-07 6.47235e-09
6.76827e-07 4.93197e-06 7.64566e-08
1.77349e-06 4.19873e-06 2.09219e-08
1.18818e-06 3.69168e-06 1.75068e-07
1.32701e-08 1.53744e-08 5.51172e-08
7.60302e-06 1.63289e-06 2.90992e-07
8.47235e-06 1.81436e-06 -1.18995e-06
-1.48358e-06 6.46255e-06 -1.12704e-06
1.274e-08 -2.10712e-09 1.51042e-08
1.97328e-06 4.20816e-06 6.59452e-08
3.52125e-06 8.33144e-06 4.43875e-06
4.82215e-06 5.9385e-06 2.58273e-06
9.31243e-06 8.09093e-06 3.80974e-06
1.06624e-07 4.09951e-07 6.89202e-08
7.31733e-08 5.32935e-07 4.96362e-08
-3.07737e-07 1.51159e-06 1.72338e-07
-6.3728e-08 8.35726e-07 9.90806e-08
6.74079e-07 2.93749e-07 1.48995e-07
3.46778e-07 5.24413e-07 1.04539e-07
1.91015e-06 6.44734e-07 -3.18283e-08
2.54676e-06 1.0656e-06 3.90708e-07
-3.65187e-08 9.05108e-10 2.82049e-08
-3.11746e-08 -2.48903e-09 1.44065e-08
7.43185e-08 1.85743e-08 -8.08647e-08
5.84714e-08 8.46472e-09 -4.91187e-08
-2.15501e-08 7.08774e-08 1.06713e-07
1.45931e-08 5.80819e-08 1.13661e-07
-1.55876e-08 5.99764e-08 9.97557e-08
2.63343e-07 1.00228e-07 2.0196e-07
3.95282e-07 2.41697e-07 -6.54208e-08
5.5969e-07 2.63539e-07 1.40874e-07
2.30561e-08 7.48745e-08 -8.15166e-08
1.24672e-08 7.63239e-08 -7.77888e-08
-4.37714e-08 5.75693e-07 -3.32868e-07
3.07028e-08 3.34158e-07 -1.98208e-07
-4.20709e-07 3.17629e-06 -5.75746e-07
-1.03427e-06 2.313e-06 -4.25288e-07
-1.45675e-08 6.30052e-08 -5.56748e-08
2.05669e-07 -6.16276e-09 -4.0127e-08
-2.02689e-08 5.00153e-09 1.16407e-08
1.3172e-08 3.31301e-08 -5.10744e-08
-1.52329e-06 3.90699e-06 -1.69456e-07
-7.95576e-08 3.65538e-07 -2.71419e-07
-1.41075e-07 3.17073e-07 -2.23545e-07
2.0739e-05 3.02944e-05 2.98004e-05
1.6603e-06 8.60339e-07 1.25957e-06
8.48223e-05 7.46025e-06 5.96411e-06
9.56075e-05 7.84065e-06 -6.32326e-06
7.71958e-05 8.04523e-06 -1.53664e-05
9.21072e-05 7.66843e-06 -2.78188e-06
1.83597e-06 8.40345e-07 1.21496e-06
1.99503e-05 2.48635e-05 2.36452e-05
1.88877e-05 2.47184e-05 2.16132e-05
4.5226e-08 2.90816e-08 -8.08957e-08
-2.52349e-08 5.70922e-09 -2.87298e-08
-1.2632e-08 4.71446e-09 -5.13016e-08
5.0816e-08 1.82883e-08 -6.70662e-08
2.2818e-08 8.50129e-09 -3.28676e-08
1.37909e-07 2.43593e-07 8.67436e-08
1.00745e-07 3.63008e-07 2.18607e-07
-6.15416e-07 7.77869e-08 2.34061e-07
-2.27744e-05 9.67101e-06 -9.49456e-06
-2.37778e-05 9.96146e-06 -1.04619e-05
-8.68352e-07 7.75086e-07 -2.1519e-07
2.11353e-07 2.02453e-07 -1.64527e-07
3.56726e-07 3.82564e-07 1.07098e-07
1.86465e-07 5.14943e-07 -2.7261e-07
1.75521e-07 2.15001e-07 -1.44298e-07
1.23605e-07 4.51728e-09 7.3688e-08
1.01237e-07 5.38183e-08 1.29725e-07
6.35499e-08 3.22661e-08 8.35733e-08
1.17506e-06 1.57748e-06 -1.07857e-07
1.30197e-06 1.78581e-06 -1.10656e-07
-4.87075e-05 1.96351e-05 -2.94363e-05
-9.17888e-08 1.94713e-07 4.20606e-09
3.31463e-08 6.35777e-09 2.15699e-08
-2.91656e-08 6.73786e-08 1.2217e-07
6.22599e-07 1.90054e-06 -2.01717e-07
6.50027e-07 1.34834e-06 -1.66711e-07
-5.17318e-08 8.70982e-08 -1.70424e-09
1.16835e-07 1.85772e-07 4.06198e-09
-1.02945e-07 1.55753e-07 -1.14245e-08
-1.616e-05 8.08879e-07 -1.12523e-06
2.55508e-09 1.03298e-07 -4.99163e-08
-3.57828e-09 8.79847e-08 -4.37233e-08
-9.37767e-06 -2.98685e-07 -2.03797e-06
7.85744e-07 7.28601e-07 -2.56094e-07
-1.31406e-05 2.60352e-06 1.91933e-06
-1.11874e-08 1.01952e-07 1.57893e-09
1.63255e-06 6.03307e-07 1.34505e-07
1.80569e-06 4.78272e-07 4.63642e-07
2.46842e-09 6.70783e-08 -3.50982e-08
-9.36921e-09 7.91188e-08 2.35761e-08
1.12842e-07 2.02437e-07 -1.21726e-07
1.78228e-08 -1.04775e-08 -1.76736e-08
1.75858e-08 4.37513e-10 -3.66307e-08
4.40933e-07 4.60781e-07 -1.2444e-07
5.49367e-07 3.8742e-07 6.65315e-08
2.65401e-06 2.09994e-06 8.37833e-07
3.25926e-05 2.71236e-05 3.46892e-05
2.50422e-05 2.68659e-05 3.20978e-05
1.69852e-08 7.86565e-10 2.10076e-09
-1.51704e-08 2.40863e-10 -1.57926e-08
2.48367e-05 2.61221e-05 2.91626e-05
3.54553e-07 9.54129e-08 1.523e-07
1.79165e-07 1.42321e-07 1.3456e-08
-2.18463e-08 5.54431e-08 -1.89149e-09
-1.02669e-07 1.97501e-07 1.77452e-07
-9.25419e-08 2.16833e-07 1.78188e-07
-4.78887e-07 3.41903e-06 2.88388e-07
-9.77448e-08 4.15845e-08 3.89626e-08
-2.53678e-08 1.20999e-07 9.49609e-08
-4.03568e-05 3.56832e-05 -5.84673e-05
-2.90191e-05 3.2006e-05 -4.80756e-05
-6.31854e-07 3.41368e-06 3.0142e-07
1.05891e-06 1.19441e-06 -2.34551e-07
-2.18803e-07 2.90168e-06 3.83908e-07
-2.66453e-09 -3.52975e-09 -2.32405e-08
2.83002e-07 7.55842e-07 -2.01154e-07
5.41198e-06 3.57053e-05 -3.48633e-05
3.768e-07 5.07043e-07 -6.45407e-08
9.09201e-07 6.1447e-07 6.2619e-07
5.92692e-08 1.04236e-07 -5.27932e-08
-3.26424e-08 4.7063e-08 2.96214e-08
8.70406e-09 2.13231e-09 -3.58636e-09
-4.06785e-09 3.18819e-09 -2.04833e-08
-1.84972e-05 2.12077e-05 -2.08697e-05
-3.01995e-08 6.22105e-08 9.66458e-08
1.27256e-06 4.81232e-07 -1.67762e-07
-5.3447e-09 -2.62866e-09 1.92586e-09
6.69973e-08 1.30864e-07 1.42967e-07
2.17639e-08 9.42107e-10 2.23054e-08
1.48037e-05 2.47469e-05 -1.81726e-05
2.59841e-07 8.72632e-08 -1.03512e-07
1.42104e-05 2.53586e-05 -2.08254e-05
0.000337272 3.73247e-06 -5.79018e-05
0.000312185 7.33143e-06 -6.35964e-05
1.51158e-08 9.78229e-08 9.34885e-08
0.00016547 4.11291e-05 -0.000115151
1.30406e-08 1.10297e-07 8.97967e-08
-4.79602e-08 6.24055e-08 1.18746e-08
-5.59664e-08 4.53497e-08 -5.41756e-09
4.24038e-08 1.52042e-07 1.28061e-07
1.03705e-06 1.07055e-06 -3.39954e-07
1.43009e-08 5.36098e-10 -9.707e-09
3.41033e-07 2.65703e-07 -9.10335e-08
3.4674e-05 3.47073e-05 -3.76624e-05
3.43297e-07 1.87118e-07 7.35176e-08
3.47389e-07 1.50296e-07 1.35254e-07
3.54282e-07 1.78943e-07 1.14521e-07
3.28929e-05 2.81086e-05 3.95501e-05
-8.41916e-08 4.53317e-08 -1.58479e-08
-7.37586e-08 3.8769e-08 -4.30578e-08
-1.67038e-07 9.74011e-08 -7.71969e-09
-2.95682e-07 2.47404e-07 -6.41645e-08
3.74298e-05 3.23717e-05 4.47619e-05
7.44278e-06 3.52327e-06 -9.14077e-07
2.82525e-06 4.65526e-06 -2.27059e-06
3.06424e-06 4.50156e-06 -2.02714e-06
0.000217787 8.83655e-06 -3.03939e-05