# vtk DataFile Version 2.0
S, Created by Mohamad Ibrahim Cheikh
ASCII
DATASET UNSTRUCTURED_GRID
POINTS 10490 double
-223.577 20.3383 -34.7914
-223.732 23.2833 -32.7642
-130.494 -29.3212 69.2781
-194.385 -37.8826 -41.0223
-207.477 29.5025 40.042
-235.881 27.3945 13.4743
-191.276 -39.7124 -41.0808
14.4415 -3.17509 87.7974
-191.088 39.2074 -41.6684
-193.431 36.9199 -42.428
-251.147 3.2111 -3.3801
-251.007 5.4614 -0.714548
-204.328 29.2925 -42.1244
18.6484 -1.58895 87.7434
-201.232 30.3615 -43.1792
-151.395 68.7288 -14.6353
-148.623 69.9361 -12.1899
241.381 21.7602 -11.7088
240.378 24.3442 -8.7825
40.2311 72.8053 -47.3839
44.042 72.1022 -48.0395
45.4955 -3.2394 -86.4875
49.3505 -1.54004 -86.2754
-145.563 -45.4986 -55.4954
-142.059 -46.9236 -55.4204
-191.797 -27.3673 49.9127
-189.472 -30.0451 49.4579
-64.339 -67.839 51.3329
-66.4777 -66.0186 53.3338
-121.233 -41.6834 -64.862
-205.502 44.6019 24.1719
-208.44 41.8656 25.9231
-64.8778 -22.6465 81.95
-61.236 -23.9574 81.9204
44.3515 4.12769 86.5225
-201.399 -44.918 27.5758
-54.6373 82.0326 -25.4787
-51.7214 81.6125 -27.4933
-109.542 -78.4118 -11.2477
-105.515 -79.2424 -10.0779
-195.509 42.6331 35.3083
-200.947 -43.0035 30.838
-54.4344 -15.3773 84.5267
3.54539 8.20789 87.6076
226.255 36.0722 -13.2452
223.494 37.2783 -15.4584
-147.021 22.4052 -67.7912
-143.855 23.6478 -68.1995
-167.021 -43.0254 -49.7746
-163.502 -43.4804 -50.7988
-215.267 -7.16081 -44.9365
-215.168 -3.16512 -45.451
-105.652 -17.6614 77.8811
-104.115 -21.196 77.2501
-247.959 -12.5244 7.7245
-247.222 -12.2256 10.5722
-226.225 -18.8478 33.512
-129.028 -40.8345 -63.5476
238.447 4.07536 -27.6832
236.191 2.11791 -30.159
30.7312 -3.79269 -87.2582
26.7545 -2.07798 -87.476
-224.961 -22.5413 32.2492
-47.66 -75.8727 41.3429
-235.553 -26.7708 15.3058
-110.546 51.0792 -60.3223
-237.919 -25.2897 13.1985
-16.8313 -1.56669 -87.7887
-20.0235 -4.08531 -87.6255
25.3139 7.38405 -87.2412
27.4365 3.60174 -87.4006
25.4949 1.63496 -87.5314
45.9944 -6.36509 -86.2814
-242.159 -16.9756 16.6251
249.587 -5.3692 -9.40944
249.111 -2.3026 -11.8806
-169.146 48.1595 43.8392
30.4389 -13.511 -86.3019
-165.523 47.9273 45.7454
-244.371 -14.4435 14.9725
243.986 6.92781 20.1941
244.544 3.56422 20.2422
-218.53 -34.253 26.9075
-142.146 -69.411 21.2685
-139.63 -70.7398 18.786
-221.096 -32.0566 27.0474
-157.971 -59.8004 33.3568
-205.042 32.4576 39.2844
-154.32 -61.3641 32.6009
21.3223 7.28881 87.3797
-119.107 18.4674 75.2734
-116.435 20.544 75.2472
25.5783 -59.0353 64.6431
29.1137 -57.6656 65.688
-134.642 54.9845 -50.0122
-136.963 52.5093 -51.8662
-177.1 57.9123 23.4569
-176.719 59.3814 19.86
-70.5789 64.8624 -54.1018
-62.7982 16.9148 -83.5169
-66.4097 16.9235 -83.1724
-67.0499 66.3802 -52.7945
124.479 57.7396 50.1307
121.047 58.3455 50.457
-132.441 -69.8473 26.7929
-132.815 -68.0013 30.9867
-188.881 35.1105 46.2969
-185.134 37.2784 46.455
-232.727 13.1727 -30.6497
-60.9005 74.6956 41.358
-62.1651 76.2297 38.2087
-231.928 16.7969 -29.6019
-175.272 -46.957 -42.1659
-178.796 -11.2361 60.8595
-181.802 -8.37801 60.2267
-195.832 53.7468 12.6511
-198.388 52.0597 14.6699
-195.137 -6.40585 -55.1455
-196.112 -2.36687 -55.0429
-155.762 25.0094 64.406
-159.485 22.4697 64.2264
-196.211 -54.5515 -7.39845
-193.182 -56.048 -5.79669
-91.6753 75.0643 -32.8694
-87.7151 75.4452 -33.3173
-39.2308 -78.9683 -36.3261
-42.732 -77.6555 -38.6012
-35.7536 20.3425 -84.6976
-119.252 -59.0802 -50.1244
-116.057 -58.393 -51.8192
-103.566 -58.9138 54.4057
-107.461 -57.2239 55.2776
-176.123 46.8938 -41.8005
26.9028 13.8733 -86.3882
23.8297 15.7197 -86.1822
-175.615 44.5871 -44.499
-89.4485 -39.6001 72.0851
-93.3189 -38.4676 72.0976
-1.70619 -75.0139 -46.0061
2.63282 -75.2498 -45.6139
-158.024 -33.2005 -59.8702
-154.737 -36.6347 -58.9109
26.621 72.5127 48.9811
29.0143 70.4757 51.7118
-166.628 38.7912 53.2916
-169.032 36.4139 54.0368
126.653 60.2606 46.3545
125.023 62.2372 44.2362
55.9312 20.25 83.3723
-158.166 12.628 67.2441
-155.549 9.85204 68.4447
-44.7442 72.6358 -47.1479
71.0523 53.0251 -65.683
-42.1427 74.3373 -44.7272
222.064 -27.8284 -30.5323
225.276 -26.0125 -29.2251
-17.8766 78.3437 -39.587
-20.7703 77.1475 -41.7066
247.477 -7.06407 13.9944
245.671 -9.07241 16.5072
-182.898 19.8459 57.0492
-181.356 22.6878 56.5908
-56.2528 68.1116 52.1287
-53.9266 69.9437 49.9584
-221.676 26.3857 -32.1172
245.289 -12.7014 14.7128
-123.34 -44.6632 -62.3433
-128.466 -46.9026 -59.3599
-126.786 -44.2475 -61.7909
-219.064 -11.0554 41.7909
-206.378 49.8739 -6.48308
-208.064 48.511 -9.51827
-173.564 -35.1413 53.1126
-196.135 -34.8663 -42.6449
-56.8652 10.5696 85.067
-100.259 80.5599 4.84354
-149.824 -21.4723 67.3403
-153.214 -21.7197 66.3193
-106.26 79.7198 2.52259
-103.973 79.929 5.642
-208.26 -1.82691 -49.3007
-211.703 -0.429443 -47.5048
7.97352 76.0124 -44.253
9.47261 74.2346 -47.1407
-23.4028 85.3712 -19.7155
-25.2003 84.3484 -23.4859
13.2564 73.9397 -47.4911
-209.323 34.9039 -34.0775
-209.443 37.4739 -31.1308
-243.671 12.2877 -17.9902
-206.009 40.0811 -30.6855
-237.953 16.7264 23.0658
-240.125 13.5328 22.3944
-198.677 34.6978 41.3207
-44.098 -51.8654 -69.3967
-47.9426 -52.1851 -68.8426
-65.9235 77.9078 -33.7979
-62.8517 78.9007 -32.172
-198.916 37.6915 38.4587
-195.388 39.9797 38.362
193.195 51.8472 -22.0511
191.21 51.6114 -24.5779
-17.5115 71.6584 -50.7102
-15.8963 70.0117 -53.0229
-160.726 -8.68429 67.1257
-158.275 -5.14999 68.1945
-159.182 -12.1875 67.0313
-155.591 -13.9556 67.7153
-181.219 -39.3698 -46.6195
-187.07 -34.8955 -47.348
234.201 -8.1983 31.0077
231.367 -8.83978 33.3481
-185.725 -37.8064 -45.7338
-220.423 -36.332 -21.8072
-223.2 -33.1949 -23.2993
-75.0576 69.3238 47.4181
-199.264 43.3593 -31.6662
-202.428 40.5053 -32.9615
-79.6664 71.7657 42.6221
-75.9051 71.5029 43.8855
-199.863 -47.1008 -25.1998
-196.405 -49.1628 -24.5818
-156.239 -38.5677 57.1658
-155.218 -34.6089 59.9711
-162.939 56.2386 -36.4804
-159.798 58.0686 -35.2952
245.94 -16.0779 8.95225
246.756 -13.0535 10.9094
-202.197 25.1196 -45.9087
246.469 -16.6406 5.45926
-222.674 -40.7298 -3.81009
-219.563 -42.6766 -4.53664
-225.918 36.4499 -12.9115
-224.094 36.2076 -16.8757
-228.901 -34.8682 10.6495
-231.376 -33.5775 7.89082
-225.472 -37.7615 9.6949
119.616 74.8205 19.8534
-172.164 -51.102 -38.7773
115.423 75.6341 19.8096
47.8994 12.1371 -85.5324
51.4885 10.7514 -85.4625
-180.223 -22.1807 57.2315
-179.976 52.312 -32.2762
-165.46 0.843988 66.2686
-168.583 2.81992 65.2422
-181.023 -17.4233 58.5533
36.4529 -59.7576 63.3272
37.7868 -57.211 65.5446
-159.985 -59.9395 -31.9
-182.768 -21.7991 -56.3835
-184.316 -18.0326 -57.0927
-11.971 14.8726 -86.6329
-188.59 -54.998 19.1009
-192.466 -53.1212 19.6698
-145.958 9.32161 -71.0554
-143.752 12.1177 -71.1842
-174.402 52.3985 35.7007
-173.454 50.701 38.5998
-187.199 39.6981 -43.3324
-231.504 33.4911 -7.79779
-229.098 35.9658 -4.96061
-234.908 30.8675 -5.93748
241.404 7.72059 23.4443
239.892 10.8364 24.102
240.61 13.4015 21.8298
-138.88 -61.8306 -39.4915
-138.123 -60.1636 -42.292
-141.497 -58.2522 -43.5828
-200.351 -41.1655 -33.6898
-218.718 20.1121 -38.5061
-52.7305 8.93435 85.579
-56.68 -81.1833 27.5672
-60.1944 -81.461 25.7777
-152.621 56.1684 41.681
-153.451 58.0325 38.6436
-189.415 -9.90221 -57.0382
-186.069 -8.88224 -58.5352
64.9081 -8.71793 84.5706
67.8928 -7.09113 84.4357
-196.835 -37.2206 40.1891
-200.415 -34.611 40.3549
-180.668 -48.246 -37.6838
-174.532 -52.0917 -36.07
-215.619 -38.509 23.8557
-218.655 -36.4151 23.7598
-178.254 -50.9821 -35.421
-121.738 47.8589 -60.325
-71.7508 59.1902 60.0851
26.8711 -68.3038 54.6826
24.8101 -66.5903 56.8715
-87.2096 -8.62 -82.0887
-84.0283 -6.31814 -82.7021
-36.5067 85.3232 -17.3429
-39.7975 84.771 -19.078
-75.5305 59.7132 58.9905
-117.798 48.8416 -60.4947
67.1069 -10.9804 -84.0957
63.3581 -11.5839 -84.3703
-122.435 44.6533 -62.5685
-76.6842 63.6517 -54.5207
-80.1359 63.9456 -53.5606
-210.937 -46.4386 -11.8322
-207.91 -47.2776 -14.7159
-70.3817 -66.9064 51.5855
-82.9144 61.468 -55.8928
181.008 57.5717 -20.4498
187.796 54.7413 -20.7272
-57.9795 -57.7734 -63.2034
-60.2441 -59.9519 -60.8722
185.033 56.5046 -18.9615
-52.2297 4.83125 85.9458
170.803 -60.94 -21.4144
166.657 -61.8364 -22.7989
-242.16 -11.2312 20.9366
-241.443 -7.71483 23.3968
231.623 25.8607 -22.5155
229.371 25.1798 -25.8605
225.985 27.6871 -26.9258
-235.384 -18.9703 -24.5114
-234.85 -16.6288 -26.7371
-226.071 27.1579 -27.3722
-222.955 28.459 -29.1236
-220.771 31.3731 -28.151
-250.634 -7.29632 -0.178264
-176.064 45.2982 43.5535
58.7372 51.2019 -68.5564
59.7925 48.3709 -70.4737
128.127 68.3789 32.5338
131.616 68.3054 30.944
-176.961 47.6018 40.5481
-181.06 46.7497 39.3045
18.7051 -86.4181 15.267
142.044 69.3648 -21.5018
141.113 68.395 -25.0635
23.2386 -86.1703 15.892
181.098 -44.0246 42.3148
25.6369 -86.6618 12.3797
-189.029 21.635 -53.8632
-189.449 17.8892 -55.0441
-212.326 -45.0148 14.0791
-120.854 -47.0075 -61.2054
-24.3194 -37.2775 79.2589
52.3469 18.4947 -84.0623
55.8594 16.7094 -84.1593
-25.2882 -41.1261 77.2939
-119.135 -6.55434 -77.2228
-115.757 -7.77113 -77.7373
-200.054 16.4633 50.7255
-215.148 -43.2647 14.3196
-153.456 32.9926 61.4199
-156.886 31.327 61.2307
-157.692 28.1739 62.4963
-79.9671 -83.431 0.603141
-63.9156 72.3064 -44.8958
-63.0212 70.2819 -48.1478
-79.8046 -83.3553 -4.02083
-209.642 -18.6829 44.8795
-60.9158 70.9078 47.5582
-205.671 -19.6763 46.6685
-191.284 -46.3889 33.3528
-190.154 -45.0081 35.9354
-195.138 47.3179 29.0345
-192.217 -42.6385 37.4498
-97.7279 19.6921 78.657
-94.1657 20.9473 78.8644
-195.846 -41.8734 35.9821
-247.679 -8.81317 12.483
188.065 -42.022 40.5952
184.93 -44.2656 39.9693
-127.317 75.4764 7.92232
-123.724 75.9933 9.74122
48.9087 1.66072 86.304
130.449 15.5861 -73.6049
-179.753 46.5061 -40.3154
198.596 13.1791 52.3603
200.491 9.43232 52.2854
113.381 74.8957 23.6806
109.645 75.3386 24.4181
149.579 63.7388 -30.694
145.753 65.3518 -29.5338
-166.874 -45.6715 -47.4217
129.851 19.3501 -72.8371
-209.812 43.7046 -21.081
-206.951 46.1275 -19.3054
126.476 20.2021 -73.3311
-61.9029 -0.409002 85.2918
-59.2129 2.52731 85.4889
[...]
POINT_DATA 10490
VECTORS F double
7.83646e-09 1.09691e-08 2.8077e-10
1.74573e-08 1.75989e-08 -2.04277e-09
3.42316e-08 1.2106e-07 5.91111e-08
1.96358e-09 9.99004e-10 -2.05874e-09
4.43017e-08 3.61948e-08 1.40251e-09
1.08169e-08 1.14478e-08 -1.65459e-10
3.3564e-09 1.91283e-09 -3.75965e-09
-8.08002e-07 1.4191e-06 6.75115e-08
2.52457e-07 1.5958e-07 8.53402e-09
2.34938e-07 1.43722e-07 -5.9464e-09
3.69476e-10 2.0903e-09 -1.21186e-09
4.25307e-10 2.18863e-09 -7.8141e-10
3.29888e-08 5.13298e-08 1.61501e-08
-9.89582e-07 2.3257e-06 6.77812e-08
4.32729e-08 2.84958e-08 -4.62069e-09
2.16855e-06 3.98235e-07 -8.74776e-07
2.91831e-06 5.08563e-07 -1.4359e-06
-8.96281e-10 1.39205e-09 3.41205e-10
-1.12847e-09 1.52793e-09 4.73721e-10
-4.48843e-05 5.33579e-06 3.5327e-06
-4.20569e-05 7.90415e-06 7.14286e-06
-1.9621e-06 1.24087e-06 -1.72791e-07
-1.76428e-06 9.91202e-07 -1.41182e-07
2.3542e-09 2.02402e-08 -1.73421e-08
7.48744e-09 2.23708e-08 -2.12821e-08
3.65999e-09 1.03292e-08 7.37644e-09
2.77047e-09 7.61495e-09 5.91997e-09
-5.59193e-09 1.76554e-08 2.24695e-08
-1.21537e-08 1.84473e-08 2.09727e-08
5.32344e-08 3.66316e-08 -3.57087e-08
1.08314e-07 5.15234e-08 1.75224e-08
7.63351e-08 4.99683e-08 -5.70982e-09
8.58216e-08 1.14859e-06 3.25657e-07
-4.18594e-08 5.98873e-07 1.71253e-07
-1.07986e-06 1.82562e-06 -1.94076e-08
4.28218e-10 5.56702e-10 1.28818e-09
0.000163355 5.03149e-05 0.00011911
0.000173846 5.43347e-05 0.000121251
5.74425e-10 1.21119e-10 -1.52632e-09
5.41185e-10 9.2341e-12 -7.64854e-10
1.59779e-07 7.45128e-08 1.82237e-08
8.38858e-10 5.84761e-10 1.48263e-09
1.60603e-07 1.25638e-06 2.41144e-07
-8.64564e-07 2.46062e-06 -2.26352e-07
-3.21262e-09 2.35108e-09 -2.93892e-10
-5.2354e-09 4.62506e-09 1.90861e-09
6.23026e-07 4.14564e-07 -2.82795e-08
5.74103e-07 8.09557e-07 1.32571e-07
-5.08804e-10 6.93379e-09 -5.78056e-09
8.84784e-10 8.99839e-09 -8.04621e-09
4.23339e-09 9.3722e-09 -3.96592e-09
7.41788e-09 1.0702e-08 -5.03199e-09
3.4661e-07 7.69823e-07 2.32056e-07
2.14159e-07 6.55601e-07 2.15158e-07
-3.76781e-10 1.01247e-09 1.37854e-10
-2.9155e-10 1.00047e-09 3.03853e-10
1.96412e-09 2.07259e-09 2.78398e-09
2.61905e-08 2.26281e-08 -2.10383e-08
-7.25346e-10 6.09923e-10 -6.71947e-10
-8.65092e-10 6.52941e-10 -7.80412e-10
-1.44377e-06 2.18724e-06 -1.5722e-07
-1.28471e-06 3.0361e-06 -1.20123e-07
9.92407e-10 1.63934e-09 1.98863e-09
-1.6105e-09 3.74967e-09 6.65163e-09
-3.83115e-11 2.31128e-10 3.29896e-10
1.32396e-05 4.81164e-06 1.10459e-06
-1.47222e-10 3.93358e-10 4.21537e-10
-3.04882e-07 3.73882e-06 -5.94068e-08
2.42071e-07 2.68743e-06 -1.31935e-07
-2.24605e-07 5.9722e-06 4.97618e-07
-2.59073e-06 4.46807e-06 8.46563e-08
-1.49682e-06 3.14301e-06 5.44488e-09
-6.88101e-07 1.37782e-06 -1.46506e-07
1.21058e-10 7.16292e-10 9.39604e-10
3.25083e-11 3.07637e-10 -6.31555e-11
-6.17822e-11 2.57011e-10 -2.03689e-10
2.36533e-07 1.61411e-07 -6.57936e-08
3.73294e-07 9.60683e-07 -1.34222e-07
3.05804e-07 2.02264e-07 -7.66245e-08
9.95025e-12 5.96045e-10 5.84873e-10
-2.18545e-10 3.46567e-10 2.02654e-10
-7.81766e-11 3.09047e-10 6.03567e-11
4.68023e-10 2.67049e-10 8.03956e-10
8.46563e-10 4.10916e-10 2.0327e-09
3.97044e-10 2.52304e-10 1.31219e-09
3.77806e-10 4.70546e-10 9.3375e-10
1.52893e-09 1.51982e-09 3.60936e-09
4.55347e-08 4.15722e-08 -5.29677e-09
2.01842e-09 1.41538e-09 3.83104e-09
1.39005e-07 3.1221e-06 -2.64699e-07
1.19061e-06 1.33651e-06 -9.74065e-08
1.14389e-06 1.61751e-06 -2.25063e-07
6.85321e-10 3.3063e-08 3.01537e-08
-5.07021e-09 5.15761e-08 4.5541e-08
3.64298e-06 2.33789e-06 1.37007e-06
4.43977e-06 1.87048e-06 4.58833e-07
2.65757e-07 1.60138e-07 -1.50127e-07
5.46118e-07 2.49101e-07 -1.50331e-07
4.92956e-05 2.35517e-05 2.0364e-05
2.13042e-06 1.05004e-06 1.66911e-08
1.85657e-06 5.70223e-07 -6.52825e-08
5.35937e-05 2.15173e-05 1.87224e-05
-7.8783e-07 3.04881e-07 -1.11769e-07
-8.6053e-07 3.72046e-07 -1.77588e-07
5.51622e-10 9.30192e-10 2.75617e-09
7.15963e-10 1.30553e-09 3.23812e-09
2.30145e-07 1.3662e-07 1.12271e-08
2.38189e-07 1.78371e-07 -2.70597e-08
4.89238e-09 6.42386e-09 -1.76832e-09
0.000102023 3.44745e-05 -4.38734e-05
9.27119e-05 3.22961e-05 -4.59685e-05
6.19001e-09 7.37658e-09 -1.72694e-09
1.75812e-09 9.77395e-10 -1.98142e-09
4.81291e-08 4.39633e-08 2.54113e-08
3.13166e-08 3.18276e-08 1.59843e-08
1.8412e-07 9.06667e-08 -3.65051e-08
1.7623e-07 8.66141e-08 -1.58216e-08
7.02501e-09 1.4423e-08 -4.70605e-09
1.68879e-08 2.01349e-08 -8.21979e-09
2.83543e-07 7.20836e-07 -1.96054e-07
4.79716e-07 3.17171e-07 3.47849e-08
3.26913e-11 -2.49123e-12 -8.94259e-11
1.89529e-11 -8.88185e-12 5.54776e-12
3.42721e-05 1.14023e-05 1.43395e-05
3.54221e-05 7.99456e-06 6.68809e-06
-2.29494e-09 4.46884e-09 -9.40828e-09
-1.34115e-09 6.10733e-09 -1.20998e-08
2.76452e-06 1.12944e-05 2.57014e-06
1.2815e-08 1.45006e-08 -2.08169e-08
1.23507e-08 1.98455e-08 -2.57429e-08
8.0927e-09 2.10953e-08 2.47204e-08
8.91587e-09 2.92335e-08 3.23729e-08
8.44186e-07 3.16233e-07 -8.04859e-08
1.70943e-07 6.05193e-06 9.78586e-07
-1.53053e-06 3.83289e-06 6.47545e-07
3.14728e-07 8.43948e-08 -6.72963e-08
4.41264e-08 1.6059e-07 9.48951e-08
3.9022e-08 2.04241e-07 1.15124e-07
-4.42818e-09 1.03541e-08 -1.68567e-08
-3.81532e-09 5.89692e-09 -9.75303e-09
1.53486e-08 3.20613e-08 -2.27297e-08
4.37273e-09 1.97944e-08 -1.37088e-08
-6.40444e-05 2.96178e-05 -3.95855e-05
-5.9048e-05 3.16125e-05 -3.90275e-05
9.13484e-07 3.43306e-07 9.964e-08
7.10751e-07 4.28653e-07 -1.67958e-08
-4.51107e-07 1.76192e-07 -7.8271e-08
-1.06915e-06 1.018e-07 2.26588e-07
-4.78357e-07 5.09807e-07 -8.46288e-08
2.55116e-07 3.26509e-07 1.20694e-08
9.80985e-08 1.26441e-07 9.039e-09
4.29017e-05 5.46051e-05 7.91413e-05
-6.12037e-06 3.61454e-06 2.10761e-06
6.25685e-05 4.71826e-05 7.12016e-05
-1.12449e-10 1.82926e-10 -2.67286e-10
-6.39632e-11 1.48557e-10 -1.92604e-10
-3.92485e-05 0.000127911 0.000255308
2.33748e-05 9.52611e-05 0.000174785
-1.42389e-12 8.57569e-11 4.56465e-11
-1.37998e-11 7.62576e-11 6.67238e-11
9.84851e-08 1.01701e-07 3.23176e-09
9.96867e-08 1.17668e-07 -8.10608e-09
3.50828e-05 1.971e-05 -2.11198e-05
2.99233e-05 2.33234e-05 -2.87005e-05
2.76532e-08 1.81162e-08 -8.43475e-09
-1.56393e-11 4.69267e-11 7.22855e-11
4.00867e-08 3.67494e-08 -3.60269e-08
1.00851e-08 2.51236e-08 -2.25102e-08
3.37096e-08 1.88293e-08 -2.19392e-08
2.97738e-09 4.81699e-09 3.17736e-09
1.18042e-07 6.07449e-08 7.7309e-09
1.22301e-07 6.17178e-08 -1.23718e-08
6.10574e-09 9.52833e-09 8.74064e-09
3.49675e-09 1.95986e-09 -3.56697e-09
9.31784e-07 3.01225e-06 -2.98298e-07
4.92542e-05 7.41001e-06 1.55217e-06
1.07968e-08 4.70578e-08 1.79326e-08
2.21648e-09 5.91201e-08 1.99715e-08
3.58497e-05 6.29427e-06 -1.40728e-05
4.31086e-05 8.09764e-06 -1.74718e-05
8.48129e-09 1.08605e-08 -4.77714e-09
7.48834e-09 1.48019e-08 -4.20378e-09
-6.86118e-05 4.97676e-05 8.39701e-05
-4.42642e-05 5.60745e-05 8.72135e-05
0.000372353 0.000102289 0.000388794
0.000180504 0.000131885 0.000449935
-4.80418e-05 2.19339e-05 3.25072e-05
6.4787e-08 4.75664e-08 1.08042e-10
1.45491e-07 8.81184e-08 -1.36371e-08
4.96769e-09 7.05257e-09 -3.37883e-09
1.51466e-07 1.02614e-07 9.6789e-09
4.35632e-09 7.84142e-09 -2.11817e-10
3.89819e-09 6.61063e-09 1.0962e-09
8.8927e-08 -5.43328e-09 5.68292e-08
7.2331e-08 9.58186e-08 -7.72247e-08
5.8291e-08 1.13805e-07 -9.12175e-08
8.6451e-05 3.55863e-05 6.13878e-05
8.68159e-05 3.67902e-05 6.94637e-05
1.42743e-07 2.61864e-08 6.46356e-08
1.43383e-07 5.80731e-08 2.87798e-08
-3.04326e-08 1.54595e-08 3.73354e-09
-3.75805e-08 1.95814e-08 5.3486e-09
1.83342e-05 8.1438e-05 0.000114305
-1.03514e-05 7.16969e-05 9.50495e-05
1.19979e-07 1.03277e-07 4.84998e-08
1.76994e-07 8.31945e-08 5.65398e-08
2.77153e-08 4.99323e-08 1.71125e-08
5.01595e-08 7.74405e-08 3.00467e-08
6.32174e-09 4.94762e-09 -7.18366e-09
7.6786e-09 5.22928e-09 -7.56265e-09
-6.39955e-11 2.44951e-10 1.24135e-10
-9.82402e-11 3.3588e-10 1.72449e-10
4.89251e-09 3.60542e-09 -5.40791e-09
2.98494e-11 2.23633e-10 -4.07946e-10
2.98393e-11 3.38649e-10 -5.14144e-10
6.20025e-05 1.445e-05 -9.11221e-06
2.01799e-07 1.37977e-07 3.36143e-08
1.81972e-07 1.31258e-07 2.46122e-08
5.00071e-05 9.80964e-06 -5.07612e-06
5.46949e-05 1.38025e-05 -1.09089e-05
1.35717e-10 4.22962e-10 -9.21869e-10
3.57773e-11 2.11648e-10 -4.58937e-10
1.01896e-08 2.52283e-08 2.04189e-08
2.1813e-08 2.60383e-08 2.19263e-08
9.91111e-07 5.60915e-07 3.23209e-07
1.19953e-06 5.80027e-07 2.89979e-07
3.26883e-11 8.56859e-11 3.90188e-11
2.27955e-11 1.05989e-10 6.04231e-11
5.48938e-08 4.1004e-08 -7.13017e-09
3.26877e-11 6.72075e-11 1.90791e-11
-9.03283e-11 6.50148e-11 -4.02732e-11
-4.85006e-11 2.62952e-11 4.29423e-11
3.84323e-08 2.79582e-08 -3.18832e-09
5.13047e-08 3.65835e-08 -4.74824e-09
-2.70059e-11 1.584e-10 4.4201e-10
-6.11092e-11 1.32229e-10 3.36399e-10
-7.65314e-11 8.70467e-11 1.16533e-10
-2.14961e-06 3.33342e-07 3.28814e-07
1.36109e-09 3.27921e-10 -1.17043e-09
-2.25452e-06 4.20823e-07 8.57078e-10
3.70725e-07 1.48544e-06 2.36318e-07
2.94942e-07 9.34935e-07 1.39439e-07
1.25104e-08 3.00497e-08 1.64538e-08
6.28066e-07 2.09516e-07 -8.8916e-08
9.06606e-08 5.5189e-08 2.69834e-08
9.07081e-08 8.40108e-08 2.50302e-08
2.38903e-08 3.55043e-08 1.95902e-08
-6.26716e-09 3.19917e-08 3.06243e-08
-5.82512e-09 3.6744e-08 3.24756e-08
1.34484e-09 4.23972e-10 -1.62106e-09
6.12432e-09 8.36275e-09 -5.65666e-09
1.96329e-08 1.52098e-08 -1.25548e-08
2.34116e-06 9.14949e-06 1.53136e-06
1.99653e-10 1.2671e-10 6.04971e-10
9.52952e-11 1.50962e-10 5.22146e-10
3.8265e-07 3.50253e-07 -5.01716e-08
3.67195e-07 4.44259e-07 -1.50445e-08
6.20159e-07 3.95489e-07 -2.09876e-07
5.20161e-07 3.21441e-07 -1.36314e-07
3.02401e-07 2.5397e-07 7.28458e-08
2.88101e-08 2.32955e-08 -4.37368e-09
3.12072e-08 2.41793e-08 -7.26833e-10
2.26563e-08 1.86662e-08 -1.23576e-08
-2.92543e-10 5.76569e-10 1.77095e-10
-3.10452e-10 7.02482e-10 5.98485e-11
-4.07313e-10 8.45497e-10 2.70403e-11
3.91626e-09 2.30224e-09 -5.28786e-09
3.61259e-09 3.19386e-09 -5.98496e-09
5.72739e-09 6.38766e-09 -1.08107e-08
2.62411e-10 1.30808e-09 -1.78687e-09
1.75769e-08 2.12919e-08 -1.07094e-09
1.60825e-06 3.96972e-06 -2.93364e-07
4.92827e-10 1.3025e-09 3.95751e-09
-3.62727e-11 1.19421e-09 3.76116e-09
6.32662e-07 9.76788e-08 1.5148e-07
1.88482e-06 6.56596e-07 -7.02596e-08
1.92083e-08 2.42228e-08 -1.19986e-08
2.30472e-08 2.54074e-08 -1.28092e-08
1.07685e-07 3.1286e-07 2.21052e-08
3.90163e-08 5.26889e-07 4.03699e-08
1.70587e-09 2.13034e-09 2.99299e-09
1.45286e-09 2.596e-09 3.10622e-09
7.91799e-10 1.39834e-09 -2.25297e-09
5.65354e-10 6.79839e-10 -1.31587e-09
2.85979e-10 1.78449e-10 6.03503e-10
2.12673e-10 2.7568e-10 6.61495e-10
2.47247e-10 9.61337e-10 -1.53464e-09
7.08288e-06 3.17372e-06 7.68591e-07
2.18023e-05 2.24951e-05 -1.89737e-05
2.02679e-10 1.87065e-08 2.33507e-08
-4.93616e-09 1.86512e-08 2.20978e-08
4.068e-07 8.21563e-07 -1.39094e-07
3.95521e-07 9.84876e-07 -1.24339e-07
0.000342767 5.95632e-05 0.000204694
0.000339128 5.85913e-05 0.00017373
2.14427e-05 2.49345e-05 -2.188e-05
6.98937e-06 5.56576e-06 2.82794e-06
-4.165e-07 4.17976e-07 -9.52339e-08
-4.62287e-07 4.05771e-07 -9.81732e-08
4.24538e-06 3.01053e-06 1.13202e-06
2.97152e-05 3.20979e-05 3.2358e-05
2.35538e-05 2.11891e-05 2.09849e-05
4.97384e-11 3.90322e-12 -1.23494e-10
-1.44143e-12 9.56034e-11 -3.01506e-10
-7.37962e-09 9.10389e-09 1.0571e-08
2.94974e-05 1.75833e-05 1.39817e-05
-9.57375e-08 3.21173e-08 -1.32457e-08
-6.84231e-08 3.06908e-08 5.22895e-09
-5.45767e-08 6.59677e-08 -5.41584e-08
-1.96238e-08 3.73112e-08 -3.43576e-08
-8.65967e-08 3.37952e-08 -2.65463e-09
3.75754e-07 3.54809e-06 -1.71717e-07
-6.8388e-13 8.70562e-11 -2.4785e-10
-2.13424e-11 1.10911e-10 -3.21069e-10
4.68946e-11 1.12015e-09 6.55779e-10
4.79588e-10 1.25438e-09 1.00576e-09
-9.74615e-10 1.29981e-09 2.72819e-10
-1.72834e-09 2.08158e-09 1.56982e-10
-2.17297e-09 2.18813e-09 2.52338e-11
-1.09706e-10 1.15049e-09 -7.54602e-10
5.77296e-10 9.52729e-10 -1.20698e-09
2.47491e-08 2.54163e-08 2.33949e-10
2.82099e-08 2.14757e-08 -5.40298e-09
3.17533e-08 2.44234e-08 -3.21235e-09
-3.02668e-10 1.31625e-09 -1.79184e-10
3.35248e-07 1.7776e-07 -1.91328e-08
-3.91388e-06 4.04213e-06 2.60859e-06
-2.39076e-06 4.08932e-06 2.5587e-06
-8.7496e-07 1.70265e-07 6.38493e-08
-7.28413e-07 5.83702e-08 2.50298e-07
5.16028e-07 2.79376e-07 -5.24665e-08
4.53327e-07 1.45423e-07 8.25069e-08
-1.73775e-11 1.42865e-10 8.13349e-10
-4.56058e-07 9.76323e-09 -3.37154e-07
-8.22598e-07 9.31136e-08 -3.12751e-07
1.62506e-10 1.05902e-10 5.44603e-10
-3.72912e-10 3.98658e-10 6.09613e-10
2.14934e-11 4.62052e-11 3.13976e-10
6.86529e-08 1.02854e-07 1.18591e-08
4.20958e-08 9.37653e-08 1.27724e-08
-8.48787e-12 1.2405e-10 3.79245e-10
5.01742e-08 3.62206e-08 -3.99377e-08
-3.59443e-09 1.45645e-07 6.83369e-08
-1.26366e-06 2.02977e-06 3.50355e-07
-1.24904e-06 1.75099e-06 2.46237e-07
-2.39219e-08 1.25281e-07 6.56739e-08
4.88493e-08 4.11384e-07 -4.40997e-08
8.90089e-08 4.31156e-07 -5.92741e-08
4.28722e-08 6.7715e-08 -1.30824e-09
-5.24835e-11 1.6791e-10 4.11319e-10
6.1074e-07 1.05498e-06 -3.80028e-07
7.14362e-07 6.23313e-07 -9.49546e-08
9.73481e-08 6.43365e-07 -2.60093e-07
-2.8365e-10 3.05541e-11 -4.02124e-10
4.02552e-05 3.61576e-05 5.1219e-05
3.36951e-05 3.52907e-05 4.61161e-05
-2.1955e-10 5.47504e-11 -6.09168e-10
3.19254e-09 4.46767e-09 3.67769e-09
7.9628e-05 4.19882e-05 -5.01182e-05
4.66973e-09 6.07888e-09 5.07522e-09
9.11243e-10 7.01225e-10 1.61359e-09
1.5677e-09 6.1325e-10 1.78185e-09
1.16687e-07 9.03074e-08 -5.1264e-08
1.31431e-09 8.29768e-10 1.76878e-09
1.56866e-06 4.27381e-06 -8.31623e-07
2.65388e-06 1.96793e-06 -1.35e-07
8.13952e-10 1.45101e-09 2.22871e-09
-1.15466e-10 1.16919e-09 5.20602e-10
-4.77533e-10 4.07056e-10 6.9204e-10
-3.82791e-10 1.86724e-10 4.23738e-10
6.48117e-06 1.43091e-06 -8.8637e-07
8.35638e-06 2.10185e-06 -3.4085e-06
-1.33246e-06 1.15779e-06 7.00876e-08
-8.80069e-08 1.94949e-07 2.22229e-08
7.89342e-07 2.94403e-07 -9.11131e-08
-7.94843e-09 8.29183e-09 1.5985e-09
-4.60343e-09 8.73486e-09 5.80876e-10
-1.78453e-06 2.08339e-07 3.86585e-07
-2.12536e-06 6.62447e-07 -8.75941e-07
-7.28101e-07 2.08977e-07 -3.29134e-10
-8.91341e-07 1.30517e-07 -2.49557e-07
-9.95193e-10 5.99387e-09 -5.34105e-09
-2.29619e-07 2.01251e-07 3.38697e-09
9.55206e-08 4.38829e-08 -2.52682e-08
1.18543e-07 4.97153e-08 -3.65779e-08
-2.46889e-07 2.40576e-07 1.41879e-08
5.38988e-07 2.73457e-06 6.08484e-08
1.04004e-06 2.54776e-06 1.26805e-08
5.47218e-07 1.93876e-06 8.79524e-08
1.41548e-10 1.53257e-10 5.63074e-10
6.97139e-06 1.50665e-06 7.12515e-08
8.10547e-06 1.77794e-06 -1.89108e-06
-6.11513e-07 4.74437e-06 -8.05028e-07
9.67921e-11 4.04351e-11 2.45813e-10
1.19703e-06 2.39315e-06 4.62331e-08
1.78926e-06 9.44931e-06 5.34416e-06
4.45203e-06 4.50234e-06 1.81416e-06
1.15099e-05 9.54647e-06 4.35986e-06
3.22121e-08 5.06191e-08 1.50746e-08
2.83862e-08 7.81058e-08 1.3116e-08
-8.38993e-08 6.6985e-07 7.09119e-08
-9.64112e-09 3.98632e-07 4.51753e-08
1.51222e-07 6.76928e-08 2.33876e-08
7.45597e-08 8.42564e-08 2.29823e-08
9.07072e-07 3.09134e-07 -8.5463e-09
1.32925e-06 5.71711e-07 2.3456e-07
-3.69763e-10 1.22018e-10 6.26081e-10
-3.76862e-10 7.45939e-11 5.15602e-10
2.48217e-09 1.27286e-09 -4.15825e-09
1.47683e-09 9.83827e-10 -2.88175e-09
7.40175e-11 6.71721e-09 1.05764e-08
3.46358e-10 4.28174e-09 8.1946e-09
-1.07742e-10 5.36873e-09 9.23398e-09
4.60733e-08 2.13716e-08 2.07399e-08
6.82196e-08 4.10376e-08 -9.19221e-09
9.54197e-08 4.7334e-08 1.38585e-08
1.93221e-09 3.30109e-09 -4.03961e-09
9.27303e-10 2.1019e-09 -2.54829e-09
-4.52204e-09 1.43642e-07 -8.4164e-08
1.8464e-08 9.5392e-08 -5.81517e-08
-9.14401e-08 2.21178e-06 -4.10046e-07
-5.47126e-07 1.75495e-06 -3.33503e-07
1.53717e-10 1.4952e-09 -1.6825e-09
5.5025e-08 6.56645e-08 -2.78491e-08
-8.73393e-10 6.86317e-10 6.92554e-10
4.565e-10 9.12887e-10 -1.48119e-09
-8.21166e-07 2.73374e-06 -1.1293e-07
-9.17386e-09 9.32697e-08 -6.94649e-08
-1.48513e-08 1.09257e-07 -7.7827e-08
4.0519e-05 3.15257e-05 2.80544e-05
7.41541e-07 3.42747e-07 3.72698e-07
0.000143746 1.2784e-05 -2.83652e-05
0.000184073 1.68106e-05 -7.59931e-05
0.000113859 1.95356e-05 -9.17571e-05
0.000155073 1.79098e-05 -6.46327e-05
7.85167e-07 3.4758e-07 4.52836e-07
3.81279e-05 2.82896e-05 2.44689e-05
3.11225e-05 2.98586e-05 2.45345e-05
4.96679e-10 6.6411e-10 -1.37961e-09
-3.99156e-10 1.45798e-10 -1.16682e-09
-2.35282e-10 8.96922e-11 -9.84995e-10
7.09625e-10 7.22283e-10 -1.59342e-09
4.18041e-10 4.3802e-10 -1.0474e-09
3.36618e-08 3.68053e-08 4.72482e-09
3.15962e-08 5.76792e-08 2.48553e-08
-3.29844e-07 6.48663e-08 7.18981e-08
-2.73514e-05 8.69252e-06 -7.70551e-06
-2.16071e-05 1.74163e-05 -2.00106e-05
-3.32649e-07 5.2021e-07 -1.44013e-07
2.11036e-08 3.43289e-08 -2.33345e-08
5.02247e-08 4.68195e-08 1.59323e-08
2.52682e-08 6.99794e-08 -3.70257e-08
3.02706e-08 4.58424e-08 -2.85575e-08
3.84453e-09 6.46977e-10 3.05744e-09
3.36942e-09 2.45321e-09 5.27798e-09
2.66894e-09 1.60276e-09 3.89544e-09
7.357e-07 1.01561e-06 -6.77144e-08
8.62645e-07 1.31383e-06 -7.27056e-08
-5.92003e-05 2.78464e-05 -4.11668e-05
-3.05836e-08 5.64668e-08 -5.98642e-11
5.68308e-10 2.67123e-09 5.10882e-09
-2.19173e-09 4.37343e-09 7.83039e-09
3.64997e-07 1.04838e-06 -1.14093e-07
4.31028e-07 8.95348e-07 -1.10929e-07
-1.9234e-08 2.69509e-08 -1.6458e-09
6.94463e-09 9.40388e-09 -1.57906e-09
-3.28875e-08 4.08299e-08 -4.96581e-09
-2.62539e-05 2.72317e-06 3.54482e-07
-2.69027e-09 2.43103e-08 -1.25044e-08
-6.19879e-09 2.26279e-08 -1.24156e-08
-7.51749e-06 -8.35853e-07 -2.58837e-06
2.28049e-07 1.76387e-07 -4.04105e-08
-1.85255e-05 7.37971e-06 8.22259e-06
-1.61568e-10 1.60943e-09 -3.1733e-10
5.41722e-07 1.96426e-07 5.02214e-08
4.88643e-07 1.82207e-07 5.41227e-08
6.67961e-11 1.67673e-09 -7.53441e-10
1.5627e-11 1.3724e-09 7.24917e-10
7.46627e-09 1.07025e-08 -3.41407e-09
-1.84721e-11 1.53593e-10 -3.11073e-10
2.70121e-11 1.85537e-10 -4.58756e-10
6.92447e-08 5.45155e-08 -2.0768e-09
6.31745e-08 5.0697e-08 2.26542e-09
1.08215e-06 9.53792e-07 4.29219e-07
4.82121e-05 5.14858e-05 6.51753e-05
4.62505e-05 5.19185e-05 6.00408e-05
2.90587e-10 2.20276e-11 -3.4997e-10
-3.80824e-11 4.19078e-11 -6.73136e-10
1.96691e-05 3.02181e-05 3.38566e-05
4.69021e-08 1.98445e-08 1.60676e-08
3.94456e-08 2.6501e-08 6.07531e-09
-7.05929e-11 9.15012e-10 4.58112e-10
-6.9459e-09 3.06501e-08 2.73078e-08
-8.73158e-09 3.5376e-08 2.89214e-08
-1.86174e-07 1.78525e-06 1.56682e-07
-2.05363e-08 1.42551e-08 1.03503e-08
3.5319e-09 7.06136e-09 7.52806e-09
-7.9751e-05 4.55476e-05 -6.98812e-05
-5.94079e-05 3.57849e-05 -5.09322e-05
-3.07634e-07 1.71412e-06 1.53696e-07
6.1334e-07 6.43878e-07 -1.14978e-07
-3.96311e-08 1.34623e-06 1.84035e-07
1.79726e-10 1.27198e-09 -4.55843e-10
2.30352e-07 3.89599e-07 -8.21304e-08
-2.3553e-05 3.79048e-05 -3.74654e-05
2.70763e-07 2.37465e-07 -5.68204e-09
2.85107e-07 1.63794e-07 1.11369e-07
2.82508e-09 4.77581e-09 -2.62e-09
-2.28999e-10 3.43032e-10 2.56708e-10
1.35727e-10 8.28513e-11 -3.64298e-10
-3.97799e-11 1.26529e-10 -6.96453e-10
-1.41904e-05 2.67883e-05 -2.61935e-05
-2.69328e-10 5.02791e-10 5.49524e-10
3.87561e-07 1.4241e-07 -6.43622e-08
-9.959e-12 -4.6728e-12 6.47323e-12
6.57111e-09 9.04311e-09 1.06035e-08
3.78925e-10 2.3593e-10 6.9423e-10
2.52464e-05 2.72208e-05 -1.88493e-05
5.90298e-08 3.28564e-08 -3.0435e-08
9.44672e-06 3.1178e-05 -2.56748e-05
0.000892748 6.00246e-05 -0.000390205
0.000657601 7.93832e-05 -0.000431729
1.54496e-09 3.76982e-09 4.13846e-09
-0.000138245 8.77223e-05 -0.000218343
2.16994e-09 4.45073e-09 4.48471e-09
-1.5063e-08 1.2112e-08 -6.76652e-10
-1.45575e-08 9.65061e-09 -2.55124e-09
2.99329e-09 6.65348e-09 6.20418e-09
2.674e-07 3.78557e-07 -9.8744e-08
4.18315e-10 4.35462e-10 -9.51737e-10
5.95457e-08 3.7696e-08 -5.3194e-10
5.14584e-05 5.89979e-05 -6.23034e-05
5.31866e-08 3.01421e-08 9.33041e-09
6.1555e-08 2.82285e-08 2.19448e-08
5.1347e-08 2.62318e-08 1.60628e-08
3.88958e-05 5.90195e-05 8.34547e-05
-1.68108e-08 9.17145e-09 -2.26469e-09
-1.42925e-08 8.01138e-09 -4.37669e-09
-6.16781e-08 3.15766e-08 4.92348e-10
-1.01437e-07 6.99541e-08 -1.14042e-08
4.39557e-05 6.10882e-05 8.37019e-05
5.87783e-06 1.70539e-06 1.26337e-08
1.49853e-06 3.75838e-06 -1.98742e-06
1.50333e-06 3.05403e-06 -1.48273e-06
0.000505293 7.27889e-05 -0.000385332
0.000510243 6.37259e-05 -0.000281804
3.08528e-06 1.52256e-06 -3.39583e-07