# vtk DataFile Version 2.0
S, Created by Mohamad Ibrahim Cheikh
ASCII
DATASET UNSTRUCTURED_GRID
POINTS 10490 double
-223.577 20.3392 -34.7912
-223.729 23.2857 -32.7653
-130.49 -29.3036 69.2863
-194.383 -37.8827 -41.023
-207.47 29.5092 40.0417
-235.876 27.3994 13.4741
-191.274 -39.7117 -41.0827
14.3935 -3.1184 87.8004
-191.063 39.2268 -41.6645
-193.403 36.9366 -42.4291
-251.146 3.21293 -3.38113
-251.007 5.46286 -0.71507
-204.326 29.3018 -42.1195
18.5887 -1.4907 87.7466
-201.228 30.3645 -43.1793
-151.305 68.7447 -14.6741
-148.506 69.9557 -12.2525
241.381 21.7607 -11.7085
240.378 24.3448 -8.78217
39.3748 72.9532 -47.2442
43.2164 72.2393 -47.9252
45.407 -3.18877 -86.4951
49.2699 -1.50316 -86.2817
-145.563 -45.4931 -55.5002
-142.058 -46.9174 -55.4261
-191.797 -27.3632 49.9151
-189.472 -30.0416 49.46
-64.34 -67.8345 51.3387
-66.4821 -66.015 53.3375
-121.226 -41.678 -64.867
-205.487 44.6088 24.1748
-208.43 41.8731 25.9207
-64.8749 -22.5703 81.9713
-61.2444 -23.9187 81.9309
44.3 4.2056 86.5219
-201.398 -44.9173 27.5772
-51.5454 82.7414 -23.9285
-48.3502 82.4291 -25.7533
-109.541 -78.4117 -11.2489
-105.514 -79.2425 -10.0785
-195.492 42.6423 35.3086
-200.947 -43.0028 30.8394
-54.4253 -15.3059 84.5404
3.50705 8.30038 87.5991
226.254 36.0726 -13.2454
223.493 37.2792 -15.458
-146.986 22.4288 -67.7926
-143.826 23.6965 -68.1901
-167.022 -43.0227 -49.7764
-163.504 -43.4775 -50.8009
-215.266 -7.15708 -44.9379
-215.166 -3.16116 -45.4524
-105.627 -17.6001 77.8991
-104.09 -21.1372 77.2704
-247.96 -12.522 7.72452
-247.222 -12.2238 10.5723
-226.223 -18.8455 33.5145
-129.023 -40.8335 -63.5494
238.447 4.07568 -27.6836
236.191 2.11812 -30.1595
30.6626 -3.70979 -87.2647
26.6922 -1.96917 -87.4808
-224.96 -22.5392 32.251
-47.6609 -75.8714 41.3451
-235.553 -26.7705 15.3058
-110.133 51.2519 -60.2682
-237.92 -25.2888 13.1991
-16.8455 -1.43097 -87.7907
-20.0185 -3.98224 -87.6304
25.2995 7.58475 -87.2245
27.3401 3.75399 -87.3979
25.4333 1.74811 -87.5314
45.9615 -6.30661 -86.2879
-242.159 -16.9745 16.6264
249.587 -5.36888 -9.40942
249.11 -2.30247 -11.8808
-169.138 48.17 43.8314
30.4654 -13.4686 -86.3074
-165.511 47.9423 45.735
-244.371 -14.4428 14.9732
243.986 6.92808 20.1944
244.544 3.5645 20.2422
-218.53 -34.2526 26.9084
-142.145 -69.4109 21.2695
-139.63 -70.7397 18.7866
-221.095 -32.0562 27.0483
-157.97 -59.7996 33.3587
-205.036 32.4654 39.2818
-154.319 -61.3634 32.6028
21.3246 7.41211 87.3693
-119.05 18.5422 75.2662
-116.382 20.6319 75.2332
25.5777 -59.0307 64.6473
29.1121 -57.6588 65.694
-134.498 55.0787 -49.9559
-136.775 52.5838 -51.8515
-177.088 57.9216 23.4444
-176.683 59.3975 19.8504
-69.635 65.4748 -53.5106
-62.7326 16.9477 -83.5163
-66.3511 16.9234 -83.1781
-66.111 67.0435 -52.0966
124.452 57.7496 50.1274
121.018 58.3561 50.4531
-132.441 -69.8469 26.7938
-132.815 -68.0009 30.9877
-188.855 35.1249 46.2992
-185.108 37.2968 46.4529
-232.726 13.1748 -30.6503
-59.3431 75.4686 40.2161
-60.6545 76.9796 36.9827
-231.927 16.7991 -29.6015
-175.271 -46.9575 -42.1659
-178.785 -11.2266 60.8652
-181.796 -8.37433 60.2292
-195.814 53.7566 12.6438
-198.366 52.07 14.669
-195.137 -6.40279 -55.1458
-196.109 -2.36264 -55.0445
-155.752 25.0745 64.3837
-159.451 22.4945 64.2282
-196.21 -54.5515 -7.39874
-193.182 -56.048 -5.79645
-90.8704 75.3072 -32.5864
-86.8733 75.7075 -32.9908
-39.2318 -78.967 -36.3287
-42.7327 -77.6539 -38.6044
-35.6929 20.6658 -84.6224
-119.248 -59.0762 -50.13
-116.053 -58.3884 -51.8252
-103.565 -58.9102 54.4099
-107.459 -57.2181 55.284
-176.054 46.9146 -41.8127
26.9009 14.0613 -86.3579
23.7675 15.8179 -86.1663
-175.597 44.5884 -44.5065
-89.4428 -39.5858 72.0938
-93.3117 -38.4452 72.1107
-1.70774 -75.0118 -46.0095
2.63131 -75.2483 -45.6163
-158.021 -33.1944 -59.8746
-154.736 -36.6309 -58.9135
25.2562 73.0773 48.2246
27.7891 71.0866 50.9524
-166.556 38.8232 53.2957
-168.97 36.4511 54.0353
126.639 60.2652 46.3533
124.985 62.2381 44.2482
55.9111 20.2646 83.3704
-158.141 12.6554 67.2459
-155.543 9.85934 68.4452
-43.5242 73.8765 -45.3247
70.8887 53.1053 -65.6399
-40.7982 75.5343 -42.8343
222.064 -27.8282 -30.5325
225.276 -26.0123 -29.2252
-16.4374 80.0892 -36.0089
-19.287 78.8598 -38.4654
247.477 -7.06407 13.9944
245.671 -9.07238 16.5073
-182.889 19.86 57.0481
-181.348 22.7036 56.5876
-55.1708 68.9594 51.1462
-52.9089 70.8292 48.8313
-221.671 26.3878 -32.1199
245.288 -12.7014 14.713
-123.334 -44.6582 -62.3483
-128.466 -46.8992 -59.3627
-126.781 -44.2465 -61.7931
-219.064 -11.0521 41.7918
-206.363 49.8819 -6.48015
-208.048 48.5196 -9.51726
-173.562 -35.1379 53.1158
-196.132 -34.8661 -42.6463
-56.8191 10.675 85.0576
-99.1637 80.7262 4.83453
-149.825 -21.4655 67.3422
-153.216 -21.7104 66.3219
-105.338 79.8772 2.26456
-102.968 80.1074 5.36157
-208.259 -1.82449 -49.3014
-211.701 -0.424637 -47.5058
6.78444 76.8918 -42.7319
8.28467 75.1199 -45.7448
-14.6669 86.1821 -17.0383
-18.5807 85.5036 -19.7703
12.0435 74.5384 -46.5862
-209.315 34.9099 -34.0773
-209.42 37.4865 -31.1347
-243.668 12.2922 -17.9915
-205.988 40.0971 -30.6818
-237.951 16.7314 23.0643
-240.123 13.5371 22.3945
-198.667 34.693 41.3311
-44.0869 -51.8572 -69.4037
-47.9324 -52.1747 -68.8514
-64.0124 78.6282 -32.5566
-60.855 79.6045 -30.8823
-198.898 37.6905 38.4712
-195.375 39.9874 38.3624
193.193 51.8482 -22.051
191.207 51.6129 -24.5774
-17.2745 73.1065 -48.6096
-16.0946 71.3395 -51.2149
-160.708 -8.67344 67.1324
-158.252 -5.14098 68.2016
-159.178 -12.1833 67.0334
-155.584 -13.9461 67.7194
-181.216 -39.3673 -46.6228
-187.067 -34.8935 -47.3508
234.201 -8.19805 31.0077
231.367 -8.83953 33.3482
-185.723 -37.8048 -45.7362
-220.423 -36.3319 -21.8075
-223.2 -33.1947 -23.2995
-73.9337 69.7548 47.0004
-199.243 43.3762 -31.6592
-202.406 40.5212 -32.9584
-78.7238 72.0591 42.3406
-74.8483 71.9247 43.416
-199.862 -47.1004 -25.2005
-196.405 -49.1626 -24.5822
-156.237 -38.5612 57.1708
-155.214 -34.6028 59.9762
-162.897 56.2687 -36.4568
-159.746 58.0964 -35.2779
245.94 -16.0777 8.95239
246.756 -13.0533 10.9096
-202.188 25.1257 -45.9101
246.469 -16.6405 5.45939
-222.675 -40.7293 -3.81034
-219.564 -42.6764 -4.53589
-225.91 36.456 -12.9115
-224.083 36.2157 -16.8754
-228.9 -34.8682 10.6501
-231.376 -33.5772 7.89176
-225.472 -37.7616 9.69455
119.557 74.8276 19.8704
-172.163 -51.1024 -38.7774
115.361 75.6432 19.8187
47.9187 12.1776 -85.5253
51.5053 10.7779 -85.4579
-180.22 -22.1728 57.2356
-179.933 52.3262 -32.2829
-165.448 0.849288 66.272
-168.571 2.8274 65.2456
-181.019 -17.4147 58.5572
36.452 -59.7531 63.3315
37.7864 -57.2062 65.5487
-159.984 -59.9393 -31.9011
-182.767 -21.7975 -56.3848
-184.31 -18.0295 -57.0959
-11.9304 15.1398 -86.5873
-188.59 -54.9977 19.1018
-192.466 -53.121 19.6704
-145.929 9.34192 -71.0601
-143.731 12.148 -71.1842
-174.352 52.4306 35.6832
-173.419 50.7258 38.5862
-187.17 39.7261 -43.322
-231.495 33.4988 -7.798
-229.089 35.9726 -4.95883
-234.901 30.8732 -5.94282
241.404 7.72107 23.4445
239.892 10.837 24.1019
240.609 13.4021 21.8297
-138.878 -61.8299 -39.4935
-138.123 -60.1622 -42.2941
-141.495 -58.2494 -43.5873
-200.351 -41.1639 -33.6916
-218.715 20.1174 -38.5058
-52.6555 9.09362 85.5678
-56.6795 -81.1828 27.5687
-60.194 -81.4606 25.7792
-152.598 56.1717 41.687
-153.353 58.0655 38.6417
-189.412 -9.89583 -57.0408
-186.064 -8.8784 -58.5377
64.9138 -8.70422 84.5715
67.8938 -7.06618 84.4377
-196.835 -37.2189 40.191
-200.415 -34.6092 40.3567
-180.668 -48.2453 -37.6849
-174.532 -52.0916 -36.0705
-215.618 -38.5089 23.8562
-218.655 -36.4148 23.7607
-178.254 -50.9816 -35.4219
-121.496 47.9772 -60.2907
-71.0547 59.7841 59.5965
26.871 -68.2988 54.6889
24.8074 -66.5862 56.8764
-87.1871 -8.57634 -82.0962
-84.0079 -6.26705 -82.7085
-30.3168 86.0089 -15.2953
-34.142 85.5503 -16.8058
-74.8791 60.2688 58.5253
-117.561 49.0258 -60.4021
67.0841 -10.9611 -84.1004
63.3346 -11.5683 -84.3746
-122.282 44.7703 -62.5215
-75.9155 64.2814 -53.9103
-79.4584 64.4245 -53.1084
-210.937 -46.4387 -11.8318
-207.911 -47.2773 -14.7162
-70.3849 -66.9049 51.587
-82.2243 61.9254 -55.5114
181.003 57.5733 -20.4512
187.791 54.7433 -20.7266
-57.991 -57.7661 -63.2087
-60.2511 -59.9478 -60.8754
185.028 56.5066 -18.9618
-52.207 4.97744 85.9391
170.803 -60.9399 -21.4146
166.658 -61.8363 -22.7992
-242.161 -11.2304 20.9366
-241.443 -7.71421 23.3973
231.622 25.8611 -22.5153
229.371 25.1805 -25.8602
225.984 27.6878 -26.9257
-235.384 -18.9689 -24.5116
-234.849 -16.6286 -26.7383
-226.064 27.1661 -27.3712
-222.948 28.4631 -29.1263
-220.766 31.3781 -28.1505
-250.634 -7.294 -0.178593
-176.039 45.3113 43.5524
58.6327 51.2947 -68.4979
59.7255 48.4669 -70.4147
128.098 68.3812 32.543
131.592 68.3042 30.9595
-176.92 47.6224 40.5458
-181.023 46.7568 39.3171
18.7048 -86.4179 15.2682
142.029 69.3641 -21.5156
141.088 68.3969 -25.076
23.2385 -86.1703 15.8921
181.098 -44.0244 42.3151
25.6367 -86.6619 12.3796
-189.024 21.6485 -53.8598
-189.445 17.9023 -55.0413
-212.327 -45.0143 14.0796
-120.846 -47.0013 -61.2123
-24.3211 -37.2709 79.262
52.3034 18.5537 -84.0526
55.8179 16.7659 -84.1514
-25.2921 -41.1202 77.2969
-119.138 -6.52565 -77.2247
-115.758 -7.74104 -77.7401
-200.046 16.4785 50.7244
-215.148 -43.264 14.3204
-153.415 33.0678 61.3921
-156.837 31.3772 61.2205
-157.698 28.2294 62.4695
-79.9679 -83.4309 0.602858
-62.8298 73.1557 -43.6914
-62.2041 71.1011 -47.0628
-79.8045 -83.3553 -4.02118
-209.642 -18.6809 44.8803
-59.5281 71.7281 46.532
-205.671 -19.6731 46.6701
-191.283 -46.3883 33.3541
-190.153 -45.0075 35.9367
-195.128 47.3279 29.0261
-192.216 -42.6379 37.4508
-97.6608 19.8734 78.6216
-94.0591 21.0312 78.8577
-195.846 -41.8718 35.9841
-247.68 -8.8114 12.4835
188.065 -42.0216 40.5959
184.93 -44.2656 39.9695
-127.11 75.5211 7.90346
-123.46 76.0596 9.63346
48.8448 1.71063 86.3075
130.445 15.5967 -73.6036
-179.684 46.5331 -40.3217
198.595 13.1811 52.3605
200.49 9.43463 52.2853
113.333 74.8986 23.6992
109.589 75.3544 24.4
149.552 63.7454 -30.6963
145.721 65.3558 -29.5442
-166.875 -45.669 -47.4233
129.839 19.3604 -72.8369
-209.799 43.709 -21.0878
-206.938 46.1324 -19.3109
126.464 20.2128 -73.3307
-61.8848 -0.277604 85.2939
-59.1641 2.63779 85.4897
[...]
POINT_DATA 10490
VECTORS F double
1.31891e-08 3.05434e-08 7.47854e-09
1.26561e-07 8.93286e-08 -4.23196e-08
1.42034e-07 7.1225e-07 3.33986e-07
5.72285e-08 -7.33316e-09 -2.64287e-08
2.86399e-07 2.57056e-07 -7.7619e-09
1.8093e-07 1.93645e-07 -5.99506e-09
8.35276e-08 2.5815e-08 -7.2566e-08
-1.91699e-06 2.35338e-06 1.22055e-07
9.49943e-07 7.21105e-07 1.45584e-07
1.03535e-06 6.24552e-07 -3.40958e-08
1.21642e-08 7.32876e-08 -4.09867e-08
1.06823e-08 5.74998e-08 -1.98758e-08
1.00119e-07 3.53941e-07 1.86768e-07
-2.36518e-06 3.95089e-06 1.2846e-07
1.41143e-07 1.18338e-07 2.68667e-09
3.37437e-06 6.69686e-07 -1.12243e-06
4.35102e-06 7.83617e-07 -1.98246e-06
-1.04578e-08 2.00897e-08 1.09394e-08
-1.23451e-08 1.94927e-08 1.26609e-08
-2.72866e-05 4.47409e-06 4.12453e-06
-2.63356e-05 3.87845e-06 2.93864e-06
-3.18764e-06 1.8428e-06 -2.72811e-07
-2.89637e-06 1.34208e-06 -2.25871e-07
3.08044e-08 2.17494e-07 -1.88169e-07
5.72228e-08 2.44325e-07 -2.24773e-07
1.56589e-08 1.66724e-07 9.87629e-08
4.85387e-10 1.42327e-07 8.66759e-08
-4.50371e-08 1.90244e-07 2.44462e-07
-1.88845e-07 1.47156e-07 1.53315e-07
2.50529e-07 2.10261e-07 -1.92417e-07
5.65111e-07 2.56827e-07 1.1418e-07
3.75259e-07 2.81622e-07 -8.55106e-08
1.39174e-07 2.99529e-06 8.38219e-07
-2.80349e-07 1.61465e-06 4.4572e-07
-2.04924e-06 3.11981e-06 -2.31929e-08
1.44523e-08 2.85478e-08 5.94209e-08
9.2136e-05 1.7005e-05 3.4501e-05
0.000100334 2.00573e-05 4.11349e-05
3.93023e-08 4.85311e-10 -5.02409e-08
3.3883e-08 -2.66906e-09 -2.24458e-08
6.41604e-07 3.50681e-07 1.13954e-08
2.70134e-08 2.9112e-08 6.21439e-08
3.06869e-07 2.83536e-06 5.37522e-07
-1.54383e-06 3.73164e-06 -3.46026e-07
-2.08607e-08 1.25635e-08 -9.41237e-09
-3.5503e-08 3.22516e-08 1.49362e-08
1.28904e-06 8.77564e-07 -5.18392e-08
1.1196e-06 1.65558e-06 2.86214e-07
-5.16204e-08 1.02897e-07 -6.773e-08
-4.49469e-08 1.15799e-07 -8.13952e-08
5.30221e-08 1.45855e-07 -5.4327e-08
6.97057e-08 1.54785e-07 -5.11648e-08
9.76048e-07 2.36451e-06 6.96256e-07
1.04851e-06 2.28717e-06 7.98574e-07
-4.00015e-08 9.76267e-08 1.05713e-09
-2.80878e-08 7.36386e-08 4.72824e-09
5.89481e-08 9.68536e-08 1.03178e-07
1.77325e-07 3.50904e-08 -6.66245e-08
-1.73813e-08 1.14999e-08 -1.66354e-08
-1.63913e-08 6.86742e-09 -1.52335e-08
-2.53819e-06 2.9957e-06 -2.3654e-07
-2.31708e-06 3.90941e-06 -1.74553e-07
1.31988e-08 8.67007e-08 7.18647e-08
-3.86567e-08 5.54911e-08 9.63741e-08
-1.10603e-08 1.24265e-08 8.96897e-10
1.23992e-05 6.20206e-06 2.50018e-06
-2.08828e-08 3.68246e-08 2.44683e-08
-4.17623e-07 4.89761e-06 -7.00141e-08
1.80116e-07 3.83924e-06 -1.79503e-07
-8.07274e-07 6.79571e-06 5.62269e-07
-3.353e-06 5.30643e-06 9.95122e-08
-2.26955e-06 4.07864e-06 7.22611e-10
-1.27416e-06 2.12607e-06 -2.38481e-07
5.57412e-09 4.48093e-08 5.56865e-08
2.46843e-09 1.20656e-08 1.13241e-09
-3.1996e-09 4.14693e-09 -9.02003e-09
3.5606e-07 3.8459e-07 -2.54443e-07
9.51172e-07 1.5919e-06 -2.07314e-07
5.0668e-07 5.60202e-07 -3.62749e-07
1.07576e-09 2.88061e-08 2.99355e-08
-9.47722e-09 1.01318e-08 1.05423e-08
-2.85959e-09 1.04244e-08 2.394e-09
1.97292e-08 1.56246e-08 3.95069e-08
2.65433e-08 6.19445e-09 4.19333e-08
1.36785e-08 3.45537e-09 2.54599e-08
1.62586e-08 1.81484e-08 3.77802e-08
3.88511e-08 3.37177e-08 8.29685e-08
2.37817e-07 2.97486e-07 -9.38907e-08
4.0329e-08 2.88188e-08 7.7612e-08
-2.88641e-07 4.84138e-06 -4.02108e-07
2.2314e-06 2.79953e-06 -2.57572e-07
2.06449e-06 3.26968e-06 -5.05677e-07
-2.45982e-08 1.954e-07 1.79614e-07
-6.74483e-08 2.87807e-07 2.56264e-07
4.91426e-06 3.02875e-06 1.71948e-06
6.00462e-06 2.51944e-06 6.15827e-07
4.37553e-07 3.40208e-07 -4.35876e-07
1.29902e-06 5.8306e-07 -3.29098e-07
2.70124e-05 1.95677e-05 1.96391e-05
2.12851e-06 1.83652e-06 1.76938e-07
1.87787e-06 5.38404e-07 -7.38494e-08
2.60157e-05 2.20113e-05 2.42846e-05
-1.05416e-06 3.40597e-07 -7.19725e-08
-1.11893e-06 3.89544e-07 -1.2198e-07
3.73353e-09 1.31459e-08 3.65305e-08
-2.75613e-10 1.8247e-08 3.98972e-08
1.01844e-06 5.43699e-07 9.61227e-08
1.00603e-06 6.7393e-07 -5.02857e-08
6.04027e-08 8.42004e-08 -1.99574e-08
4.64569e-05 2.26079e-05 -3.40325e-05
4.69021e-05 2.24139e-05 -3.72369e-05
3.4747e-08 8.68054e-08 1.59326e-08
4.40362e-08 -2.25052e-08 2.65209e-09
4.46047e-07 3.81783e-07 2.3083e-07
2.23091e-07 1.42411e-07 1.02243e-07
6.7148e-07 3.65114e-07 -2.79151e-07
8.06886e-07 3.84822e-07 -3.01052e-08
-6.19355e-09 1.1723e-07 -1.09282e-08
1.25142e-07 1.62248e-07 -6.15497e-08
3.96572e-07 2.40638e-06 -8.1972e-07
1.27e-06 9.56681e-07 5.09493e-08
7.9595e-09 -1.91873e-09 -1.16941e-08
-1.34577e-09 -6.29618e-10 1.15801e-08
2.69953e-05 7.49602e-06 8.10687e-06
2.83603e-05 9.25788e-06 1.21019e-05
-4.37258e-08 4.9959e-08 -1.02813e-07
-2.97802e-08 6.45552e-08 -1.2582e-07
1.28808e-06 1.02522e-05 2.4372e-06
1.26854e-07 1.5618e-07 -2.20996e-07
1.23814e-07 1.81672e-07 -2.38624e-07
4.07578e-08 1.49114e-07 1.70945e-07
8.73565e-08 2.39774e-07 2.6895e-07
2.4299e-06 7.43398e-07 -4.18501e-07
-4.97498e-07 6.31329e-06 1.009e-06
-2.32771e-06 3.56363e-06 5.75589e-07
7.24486e-07 9.2988e-08 -2.56796e-07
2.47935e-07 5.82362e-07 3.57426e-07
3.06557e-07 8.97178e-07 5.26888e-07
-6.28381e-08 8.17324e-08 -1.32967e-07
-6.1649e-08 5.90979e-08 -9.79219e-08
1.23864e-07 2.3579e-07 -1.70744e-07
2.67377e-08 1.49032e-07 -1.01261e-07
-4.42624e-05 1.83561e-05 -2.49776e-05
-3.97903e-05 1.97184e-05 -2.48532e-05
2.6751e-06 1.19134e-06 1.55691e-07
2.32476e-06 1.37089e-06 -3.47519e-08
-5.75407e-07 1.41969e-07 7.87934e-09
-1.42311e-06 1.66867e-08 4.68662e-07
-1.07689e-06 9.61112e-07 -1.45202e-07
9.56828e-07 1.0362e-06 8.04769e-08
2.52032e-07 2.74701e-07 3.05506e-08
4.66274e-05 3.54728e-05 5.23366e-05
-5.6938e-06 2.76937e-06 1.48769e-06
5.36508e-05 3.30623e-05 5.20458e-05
-2.26459e-09 7.33749e-09 -8.70473e-09
-1.47924e-09 5.72912e-09 -6.49418e-09
0.000114489 4.30898e-05 8.94383e-05
0.000101499 4.75979e-05 9.13517e-05
-7.57446e-10 -5.83664e-10 1.34877e-09
-1.27756e-09 5.57339e-10 2.63657e-09
3.80755e-07 5.52312e-07 -4.28312e-08
3.24888e-07 6.08204e-07 -1.16547e-07
3.99719e-05 3.08803e-05 -3.63565e-05
4.19888e-05 3.04519e-05 -3.86001e-05
1.98642e-07 7.75226e-08 -1.04152e-07
-3.97478e-09 -1.7176e-09 6.63073e-09
2.41976e-07 1.91987e-07 -1.96117e-07
1.10364e-08 1.28683e-07 -1.04589e-07
2.24754e-07 3.62899e-08 -8.24405e-08
2.68678e-10 1.33471e-07 3.547e-08
5.53793e-07 2.95495e-07 1.15453e-07
5.95496e-07 3.20994e-07 4.2704e-08
9.62666e-08 1.38307e-07 1.30007e-07
9.01863e-08 4.22738e-09 -5.42369e-08
2.17747e-06 3.85235e-06 -3.05406e-07
3.119e-05 4.8133e-06 -2.04629e-06
-3.7873e-08 2.73873e-07 7.69814e-08
-7.09799e-08 3.7348e-07 1.02182e-07
2.73419e-05 4.57487e-06 -5.65728e-06
2.9321e-05 5.00336e-06 -5.81441e-06
4.76492e-08 9.3097e-08 -2.80881e-08
6.6694e-08 1.86972e-07 -3.80591e-08
-1.59679e-06 3.545e-05 6.37568e-05
-2.77829e-05 3.06563e-05 4.97256e-05
0.000234414 1.15131e-05 3.35263e-05
0.000210927 1.40821e-05 3.66303e-05
-2.95872e-05 2.27549e-05 3.54713e-05
2.98691e-07 2.22848e-07 3.67219e-09
8.64641e-07 4.6983e-07 -1.46351e-07
1.04517e-07 1.79192e-07 -5.08756e-08
7.78698e-07 5.95104e-07 1.37664e-07
6.8836e-08 2.04142e-07 -6.11423e-08
8.15267e-08 1.71892e-07 3.11971e-09
4.1836e-07 -1.80493e-07 3.97703e-07
4.30437e-07 3.17327e-07 -2.70576e-07
3.95908e-07 4.02331e-07 -3.38624e-07
5.98481e-05 1.98516e-05 3.35372e-05
6.42707e-05 1.86355e-05 3.25306e-05
6.94921e-07 -3.82139e-08 4.77303e-07
5.13688e-07 2.92137e-07 1.57837e-08
-7.12655e-08 3.42003e-08 3.97406e-09
-9.96087e-08 5.45595e-08 1.97015e-08
2.60324e-05 4.84727e-05 7.17679e-05
4.26354e-06 4.3771e-05 6.08065e-05
7.40797e-07 4.22679e-07 2.71725e-07
9.08448e-07 3.50562e-07 2.84498e-07
1.95398e-07 1.58579e-07 8.56276e-08
3.12291e-07 3.7279e-07 1.64612e-07
1.00946e-07 9.80223e-08 -1.30805e-07
1.14479e-07 7.63699e-08 -1.1165e-07
1.32587e-09 9.74483e-09 1.3508e-09
9.33157e-10 9.58957e-09 1.75005e-09
8.71594e-08 6.2788e-08 -9.52316e-08
3.50013e-09 2.73878e-09 -8.89492e-09
-1.19798e-09 4.85122e-09 -5.50537e-09
3.23855e-05 1.44435e-05 -1.51989e-05
7.84875e-07 6.26948e-07 2.54235e-07
8.16332e-07 5.90772e-07 1.12552e-07
2.76795e-05 1.0128e-05 -1.0936e-05
3.12331e-05 1.42924e-05 -1.7085e-05
4.04015e-09 1.37476e-08 -2.96188e-08
3.62367e-10 7.39781e-09 -1.51489e-08
6.83528e-08 2.6533e-07 2.01831e-07
2.01818e-07 2.46353e-07 2.06075e-07
1.55867e-06 1.10106e-06 8.4675e-07
1.94157e-06 9.96834e-07 5.65219e-07
1.74935e-09 6.58305e-09 5.94222e-09
5.04487e-10 7.03604e-09 7.02357e-09
3.27118e-07 2.31574e-07 -4.9641e-08
4.7322e-10 2.74039e-09 5.73673e-09
-2.80394e-08 1.97177e-08 -1.01471e-08
-2.1295e-08 9.83498e-09 3.36641e-08
3.089e-07 2.35888e-07 4.32902e-09
3.99639e-07 3.10728e-07 1.71399e-08
1.24246e-08 -1.72981e-09 2.7033e-08
-2.2041e-09 1.15085e-08 4.10527e-08
1.88009e-09 -5.42326e-09 -1.5774e-08
-2.03016e-06 2.09933e-07 7.04916e-07
5.12799e-08 -1.9833e-08 -1.73703e-09
-2.10502e-06 2.62634e-07 4.97704e-07
5.71456e-07 1.40208e-06 2.38838e-07
4.97051e-07 9.34262e-07 1.54506e-07
1.11989e-07 3.17219e-07 1.66061e-07
1.56511e-06 5.25421e-07 -2.16362e-07
4.66566e-07 2.07849e-07 1.39941e-07
4.78375e-07 2.91483e-07 1.38686e-07
1.5443e-07 3.43425e-07 1.6058e-07
-3.81605e-08 1.90611e-07 1.8253e-07
-1.78145e-08 2.01846e-07 1.77413e-07
4.18374e-08 1.13832e-08 -4.70751e-08
6.91088e-08 6.38314e-08 -5.21023e-08
2.22669e-07 1.22287e-07 -1.26618e-07
7.83118e-07 9.11261e-06 1.58014e-06
7.05533e-09 9.59805e-09 3.61617e-08
2.07336e-09 8.33501e-09 2.49933e-08
1.08336e-06 7.52386e-07 -1.73467e-07
8.04279e-07 1.08291e-06 -1.40153e-08
1.7821e-06 1.13163e-06 -5.96667e-07
1.28492e-06 8.88341e-07 -4.60805e-07
1.06881e-06 1.03305e-06 3.8195e-07
3.54701e-07 2.99163e-07 -4.01681e-09
3.27658e-07 2.65773e-07 7.47331e-08
2.79839e-07 2.20586e-07 -2.0827e-07
-1.12138e-08 1.85146e-08 8.03855e-09
-7.69073e-09 2.31641e-08 -1.04288e-09
-8.02363e-09 2.26795e-08 -3.09601e-09
7.27132e-08 2.86599e-08 -7.61741e-08
1.36865e-08 5.49658e-08 -8.36603e-08
7.34989e-08 1.12004e-07 -1.78892e-07
-1.09608e-08 6.51799e-08 -7.16569e-08
1.30432e-07 2.02582e-07 1.51342e-08
3.28283e-06 5.95055e-06 -3.85068e-07
2.50589e-08 1.95704e-08 6.39362e-08
1.82323e-08 1.90362e-08 6.5365e-08
1.07033e-06 2.02222e-07 2.07195e-07
3.42055e-06 1.13137e-06 -3.81125e-08
1.40579e-07 2.47833e-07 -1.00148e-07
1.88961e-07 1.45379e-07 -9.5584e-08
1.74774e-07 5.7851e-07 4.31151e-08
-4.26633e-09 1.01324e-06 8.52104e-08
2.07356e-08 7.21164e-08 7.92169e-08
1.53833e-08 7.33447e-08 7.2252e-08
2.10972e-08 2.31932e-08 -4.2076e-08
1.85784e-08 4.03766e-09 -1.68374e-08
1.55993e-08 3.33643e-09 2.26489e-08
1.77216e-08 1.21869e-08 3.86424e-08
1.4959e-08 1.75174e-08 -3.44288e-08
7.67115e-06 4.07138e-06 1.34726e-06
2.63579e-05 1.94061e-05 -1.56198e-05
-4.36228e-09 2.17793e-07 2.72256e-07
-1.14603e-07 1.76633e-07 2.12907e-07
8.254e-07 1.63089e-06 -2.77693e-07
7.24006e-07 1.93793e-06 -2.36873e-07
0.00016875 1.33136e-05 3.39129e-05
0.000153061 1.54783e-05 4.07209e-05
2.43605e-05 1.69984e-05 -1.36889e-05
7.67023e-06 5.5379e-06 2.66717e-06
-8.51268e-07 6.85037e-07 -1.72416e-07
-8.80299e-07 5.78353e-07 -1.60195e-07
5.01107e-06 4.03374e-06 1.68857e-06
2.47747e-05 1.79098e-05 1.7084e-05
2.24073e-05 1.4356e-05 1.33105e-05
1.24714e-09 -6.02718e-09 2.09332e-08
-2.08828e-08 1.5368e-08 -1.32497e-08
-1.36579e-07 6.47786e-08 6.1199e-08
2.10127e-05 1.43937e-05 1.22462e-05
-1.88478e-07 5.73006e-08 -4.29137e-08
-1.48086e-07 7.11433e-08 2.36413e-08
-4.53319e-07 2.80347e-07 -2.05289e-07
-2.79069e-07 1.59288e-07 -1.23045e-07
-1.84277e-07 7.17475e-08 -6.33567e-09
1.11782e-06 5.44091e-06 -2.31997e-07
9.13331e-09 5.09423e-09 -5.57909e-09
9.52775e-09 6.8777e-09 -1.01277e-08
-1.37631e-08 3.25411e-08 -2.03252e-09
7.41125e-09 2.28687e-08 1.69051e-08
-4.71375e-09 1.29484e-08 8.9342e-09
-1.38296e-08 2.61291e-08 1.04236e-08
-1.71087e-08 2.27167e-08 5.77831e-09
-3.17428e-08 5.53984e-08 -5.55172e-09
4.41602e-08 3.04006e-09 -4.93779e-08
2.71805e-07 3.18615e-07 4.13837e-08
2.75553e-07 1.55434e-07 -1.06338e-07
2.01938e-07 1.90874e-07 1.88683e-08
-2.27329e-08 9.59551e-08 -1.33793e-08
9.68964e-07 4.65415e-07 -4.70826e-09
-3.96197e-06 3.36107e-06 2.10174e-06
-2.765e-06 3.45399e-06 2.09027e-06
-1.05581e-06 5.43913e-08 3.94513e-07
-9.11311e-07 -5.89816e-08 6.0435e-07
1.52376e-06 7.33814e-07 -4.78692e-08
1.39045e-06 2.59601e-07 4.75063e-07
-1.45813e-08 9.56747e-09 5.63423e-08
-4.85125e-07 -1.50487e-08 -4.40584e-07
-8.39098e-07 6.45358e-08 -4.01972e-07
-4.48414e-09 7.30524e-10 4.76381e-09
-1.12815e-08 6.44426e-09 1.2615e-08
-1.07959e-08 -6.7005e-10 -1.95609e-09
1.71319e-07 5.0367e-07 1.28834e-07
1.32407e-07 4.90266e-07 1.03665e-07
-2.68774e-08 2.20442e-08 2.08529e-08
3.44686e-07 2.4167e-07 -2.68875e-07
-5.40484e-08 2.66634e-07 1.23346e-07
-1.50562e-06 2.02694e-06 3.32721e-07
-1.43079e-06 1.94159e-06 2.70641e-07
-1.4943e-07 2.43436e-07 1.23515e-07
-8.89014e-08 1.06092e-06 -7.28579e-08
-2.70181e-08 1.12184e-06 -1.06782e-07
3.16836e-07 5.8976e-07 -3.86101e-08
-2.58652e-08 2.66564e-08 3.29573e-08
1.60143e-06 2.65401e-06 -9.39589e-07
1.83422e-06 1.8839e-06 -3.90259e-07
-1.32034e-07 2.08687e-06 -9.83848e-07
-3.23332e-08 3.72393e-09 -9.77744e-09
3.70503e-05 2.49181e-05 3.51992e-05
2.91443e-05 2.4168e-05 3.17961e-05
7.54464e-09 -2.89193e-10 -1.23432e-08
3.62803e-09 7.7665e-08 3.44016e-08
4.22218e-05 2.47277e-05 -3.15043e-05
1.56719e-08 1.33152e-07 6.45837e-08
2.4535e-08 2.77406e-08 5.58074e-08
4.07913e-08 2.35752e-08 5.59507e-08
3.63318e-07 3.73245e-07 -3.09561e-07
2.65843e-08 2.38881e-08 4.39027e-08
2.82888e-06 6.15095e-06 -1.12458e-06
3.79832e-06 4.00727e-06 -5.14066e-07
1.32967e-08 6.63441e-08 8.60586e-08
-1.26377e-08 7.24744e-08 2.04595e-08
-2.5201e-08 1.34471e-08 2.82132e-08
-1.32143e-08 3.60596e-10 7.88393e-09
7.22743e-06 1.53368e-06 -4.24012e-07
9.16452e-06 2.27304e-06 -3.56701e-06
-2.50206e-06 2.07764e-06 1.32179e-07
-1.58866e-07 3.59338e-07 4.16741e-08
2.42225e-06 9.60699e-07 -2.12845e-07
-5.83816e-08 7.68888e-08 7.75379e-09
-2.42779e-08 9.01365e-08 -4.86744e-09
-1.82382e-06 1.04647e-07 7.37066e-07
-2.08346e-06 4.88132e-07 -3.61857e-07
-8.83921e-07 2.15545e-07 -7.9625e-08
-1.03727e-06 1.2953e-07 -3.39826e-07
-7.34271e-08 9.83892e-08 -6.31164e-08
-4.15198e-07 3.4881e-07 2.10105e-09
4.92156e-07 1.64502e-07 -2.58499e-07
4.9211e-07 1.83025e-07 -2.08405e-07
-4.35809e-07 3.5899e-07 6.93561e-09
6.85489e-07 4.95231e-06 7.70051e-08
1.77965e-06 4.22397e-06 2.04526e-08
1.19237e-06 3.72516e-06 1.75987e-07
1.33016e-08 1.53755e-08 5.51662e-08
7.6072e-06 1.63398e-06 2.81335e-07
8.47453e-06 1.81442e-06 -1.18583e-06
-1.47205e-06 6.53006e-06 -1.13856e-06
1.27685e-08 -2.10641e-09 1.51516e-08
1.98442e-06 4.24639e-06 6.57913e-08
3.59712e-06 8.30205e-06 4.41012e-06
4.85011e-06 5.97668e-06 2.60048e-06
9.29746e-06 8.0641e-06 3.79581e-06
1.07827e-07 4.11135e-07 6.94251e-08
7.46555e-08 5.33855e-07 5.01669e-08
-3.11525e-07 1.53601e-06 1.74964e-07
-6.50574e-08 8.52043e-07 1.01015e-07
6.7452e-07 2.94013e-07 1.48679e-07
3.49054e-07 5.25368e-07 1.05266e-07
1.91538e-06 6.46494e-07 -3.18986e-08
2.54695e-06 1.06334e-06 3.86096e-07
-3.66842e-08 9.45784e-10 2.84435e-08
-3.13388e-08 -2.45918e-09 1.46246e-08
7.43987e-08 1.85487e-08 -8.085e-08
5.85416e-08 8.44907e-09 -4.91219e-08
-2.15743e-08 7.13265e-08 1.07414e-07
1.47412e-08 5.84158e-08 1.1433e-07
-1.55459e-08 6.03443e-08 1.004e-07
2.63883e-07 1.00517e-07 2.02056e-07
3.95672e-07 2.41729e-07 -6.47919e-08
5.59722e-07 2.63564e-07 1.40826e-07
2.31225e-08 7.47889e-08 -8.14695e-08
1.25058e-08 7.61947e-08 -7.76989e-08
-4.29205e-08 5.7713e-07 -3.33858e-07
3.16926e-08 3.35521e-07 -1.99155e-07
-4.32926e-07 3.23736e-06 -5.86718e-07
-1.05335e-06 2.36943e-06 -4.36039e-07
-1.44901e-08 6.28861e-08 -5.5606e-08
2.0644e-07 -4.96817e-09 -4.05875e-08
-2.04423e-08 5.05782e-09 1.17459e-08
1.31862e-08 3.30663e-08 -5.10089e-08
-1.51294e-06 3.95301e-06 -1.71323e-07
-7.97161e-08 3.67368e-07 -2.7278e-07
-1.4134e-07 3.19106e-07 -2.24991e-07
2.09533e-05 3.0262e-05 2.97747e-05
1.66278e-06 8.60198e-07 1.25517e-06
8.46415e-05 7.43433e-06 6.06113e-06
9.52707e-05 7.79787e-06 -6.12166e-06
7.71621e-05 8.00248e-06 -1.50613e-05
9.17869e-05 7.62092e-06 -2.6522e-06
1.84263e-06 8.40823e-07 1.20537e-06
2.01541e-05 2.4909e-05 2.36899e-05
1.90163e-05 2.4782e-05 2.16778e-05
4.51607e-08 2.90175e-08 -8.07472e-08
-2.52236e-08 5.70208e-09 -2.86501e-08
-1.25958e-08 4.70721e-09 -5.12498e-08
5.07484e-08 1.82528e-08 -6.69617e-08
2.28089e-08 8.47714e-09 -3.2822e-08
1.3824e-07 2.43621e-07 8.65487e-08
1.01316e-07 3.62675e-07 2.17988e-07
-6.331e-07 8.0858e-08 2.3885e-07
-2.27132e-05 9.65402e-06 -9.48455e-06
-2.37833e-05 9.83212e-06 -1.03001e-05
-8.71425e-07 7.83184e-07 -2.17417e-07
2.11459e-07 2.02765e-07 -1.64711e-07
3.57846e-07 3.82774e-07 1.07552e-07
1.8682e-07 5.15025e-07 -2.72751e-07
1.75967e-07 2.15511e-07 -1.44648e-07
1.23994e-07 4.54605e-09 7.39423e-08
1.01572e-07 5.39859e-08 1.30137e-07
6.38195e-08 3.23819e-08 8.38942e-08
1.18043e-06 1.58458e-06 -1.08319e-07
1.3086e-06 1.79509e-06 -1.11176e-07
-4.72967e-05 1.89574e-05 -2.84328e-05
-9.24262e-08 1.95629e-07 4.15983e-09
3.33338e-08 6.48596e-09 2.18618e-08
-2.92192e-08 6.77212e-08 1.22823e-07
6.25231e-07 1.90658e-06 -2.02381e-07
6.53798e-07 1.35898e-06 -1.67869e-07
-5.22465e-08 8.76694e-08 -1.77672e-09
1.16692e-07 1.85539e-07 4.05616e-09
-1.03596e-07 1.56294e-07 -1.15617e-08
-1.58974e-05 7.34122e-07 -1.20325e-06
2.27333e-09 1.0347e-07 -5.00642e-08
-3.94159e-09 8.81886e-08 -4.39037e-08
-9.32327e-06 -3.31651e-07 -2.08089e-06
7.87267e-07 7.28306e-07 -2.54954e-07
-1.29629e-05 2.47542e-06 1.75453e-06
-1.11655e-08 1.01765e-07 1.65588e-09
1.63059e-06 6.03742e-07 1.32593e-07
1.80386e-06 4.78428e-07 4.62281e-07
2.45705e-09 6.69708e-08 -3.49613e-08
-9.30669e-09 7.90173e-08 2.36385e-08
1.12856e-07 2.02245e-07 -1.21367e-07
1.77849e-08 -1.04657e-08 -1.76102e-08
1.75518e-08 4.24528e-10 -3.65338e-08
4.4157e-07 4.60447e-07 -1.23648e-07
5.49469e-07 3.87302e-07 6.67033e-08
2.65493e-06 2.09732e-06 8.35192e-07
3.28174e-05 2.70137e-05 3.45385e-05
2.52443e-05 2.67556e-05 3.19589e-05
1.7015e-08 7.85134e-10 2.2712e-09
-1.5237e-08 2.29521e-10 -1.56833e-08
2.51476e-05 2.60808e-05 2.91018e-05
3.55072e-07 9.55962e-08 1.52497e-07
1.79991e-07 1.42494e-07 1.38307e-08
-2.17554e-08 5.53737e-08 -1.78013e-09
-1.03181e-07 1.99504e-07 1.79237e-07
-9.28163e-08 2.19089e-07 1.80025e-07
-4.71831e-07 3.44583e-06 2.91261e-07
-9.92661e-08 4.25028e-08 3.96746e-08
-2.51289e-08 1.21332e-07 9.5346e-08
-3.86266e-05 3.46496e-05 -5.68999e-05
-2.84852e-05 3.15748e-05 -4.75023e-05
-6.26029e-07 3.4379e-06 3.04191e-07
1.0657e-06 1.19796e-06 -2.34301e-07
-2.13805e-07 2.92469e-06 3.87381e-07
-2.64463e-09 -3.48682e-09 -2.31042e-08
2.96903e-07 7.61988e-07 -1.99834e-07
5.85956e-06 3.57386e-05 -3.49118e-05
3.85641e-07 5.17837e-07 -6.57052e-08
9.0993e-07 6.13983e-07 6.23857e-07
5.91896e-08 1.04133e-07 -5.26835e-08
-3.25585e-08 4.69627e-08 2.96603e-08
8.65227e-09 2.10962e-09 -3.50557e-09
-4.102e-09 3.16406e-09 -2.03903e-08
-1.90292e-05 2.13567e-05 -2.10171e-05
-3.01275e-08 6.20824e-08 9.65206e-08
1.27177e-06 4.81407e-07 -1.66089e-07
-5.32754e-09 -2.61514e-09 1.96382e-09
6.74289e-08 1.31279e-07 1.43501e-07
2.18457e-08 9.37582e-10 2.23775e-08
1.48009e-05 2.4813e-05 -1.82388e-05
2.60446e-07 8.79892e-08 -1.0403e-07
1.43545e-05 2.54105e-05 -2.08756e-05
0.000332062 3.43012e-06 -5.63839e-05
0.000309247 6.89346e-06 -6.146e-05
1.5293e-08 9.79559e-08 9.37034e-08
0.000168617 3.9242e-05 -0.000110226
1.32519e-08 1.10449e-07 9.00226e-08
-4.84157e-08 6.26757e-08 1.17975e-08
-5.63457e-08 4.55809e-08 -5.4957e-09
4.26306e-08 1.52246e-07 1.28322e-07
1.03732e-06 1.07173e-06 -3.40119e-07
1.43373e-08 5.16212e-10 -9.69784e-09
3.41574e-07 2.65618e-07 -9.02834e-08
3.49653e-05 3.47229e-05 -3.76989e-05
3.43691e-07 1.87228e-07 7.37781e-08
3.47966e-07 1.50537e-07 1.35485e-07
3.54548e-07 1.78998e-07 1.1472e-07
3.33252e-05 2.78913e-05 3.91974e-05
-8.4966e-08 4.58098e-08 -1.55781e-08
-7.44012e-08 3.91855e-08 -4.28184e-08
-1.71244e-07 9.93427e-08 -7.52359e-09
-3.02164e-07 2.51639e-07 -6.47272e-08
3.78419e-05 3.21411e-05 4.44213e-05
7.47227e-06 3.58267e-06 -9.48846e-07
2.88654e-06 4.64222e-06 -2.25016e-06
3.13987e-06 4.51274e-06 -2.01907e-06
0.000214033 8.4907e-06 -2.88415e-05
0.000201122 9.49407e-06 -2.71318e-05