# vtk DataFile Version 2.0
S, Created by Mohamad Ibrahim Cheikh
ASCII
DATASET UNSTRUCTURED_GRID
POINTS 10490 double
-223.577 20.3392 -34.7912
-223.729 23.2858 -32.7654
-130.49 -29.3029 69.2866
-194.383 -37.8827 -41.023
-207.47 29.5094 40.0417
-235.876 27.3996 13.4741
-191.274 -39.7117 -41.0827
14.3915 -3.11603 87.8005
-191.062 39.2275 -41.6643
-193.402 36.9373 -42.4291
-251.146 3.213 -3.38117
-251.007 5.46292 -0.71509
-204.326 29.3022 -42.1193
18.5863 -1.48672 87.7468
-201.228 30.3646 -43.1793
-151.302 68.7454 -14.6753
-148.502 69.9564 -12.2545
241.381 21.7607 -11.7085
240.378 24.3448 -8.78216
39.3477 72.958 -47.2396
43.1902 72.2434 -47.9219
45.4038 -3.18692 -86.4954
49.267 -1.50181 -86.282
-145.563 -45.4928 -55.5004
-142.058 -46.9171 -55.4264
-191.797 -27.363 49.9152
-189.472 -30.0415 49.4601
-64.3401 -67.8343 51.339
-66.4823 -66.0149 53.3376
-121.226 -41.6777 -64.8672
-205.487 44.609 24.1749
-208.43 41.8734 25.9206
-64.8748 -22.5673 81.9722
-61.2447 -23.9171 81.9313
44.2979 4.20874 86.5219
-201.398 -44.9173 27.5773
-51.4541 82.7582 -23.8945
-48.2509 82.4488 -25.7129
-109.541 -78.4117 -11.249
-105.514 -79.2425 -10.0785
-195.491 42.6427 35.3086
-200.947 -43.0028 30.8395
-54.425 -15.3031 84.5409
3.5055 8.30414 87.5987
226.254 36.0726 -13.2454
223.493 37.2792 -15.458
-146.985 22.4297 -67.7927
-143.825 23.6982 -68.1898
-167.022 -43.0226 -49.7764
-163.504 -43.4774 -50.8009
-215.266 -7.15694 -44.938
-215.166 -3.161 -45.4524
-105.626 -17.5978 77.8998
-104.089 -21.1349 77.2712
-247.96 -12.5219 7.72452
-247.222 -12.2237 10.5723
-226.223 -18.8454 33.5146
-129.023 -40.8335 -63.5495
238.447 4.07569 -27.6836
236.191 2.11812 -30.1595
30.66 -3.70679 -87.2649
26.6899 -1.96525 -87.481
-224.96 -22.5391 32.251
-47.661 -75.8714 41.3452
-235.553 -26.7705 15.3058
-110.12 51.2581 -60.2657
-237.92 -25.2888 13.1991
-16.8459 -1.42605 -87.7908
-20.0183 -3.97838 -87.6305
25.2987 7.59155 -87.2239
27.3367 3.7593 -87.3978
25.4311 1.7522 -87.5314
45.9602 -6.30448 -86.2881
-242.159 -16.9744 16.6265
249.587 -5.36886 -9.40942
249.11 -2.30247 -11.8809
-169.138 48.1704 43.8312
30.4663 -13.467 -86.3076
-165.51 47.9429 45.7347
-244.371 -14.4428 14.9732
243.986 6.92809 20.1944
244.544 3.56451 20.2422
-218.53 -34.2526 26.9085
-142.145 -69.4108 21.2696
-139.63 -70.7397 18.7866
-221.095 -32.0562 27.0484
-157.97 -59.7996 33.3588
-205.036 32.4657 39.2817
-154.319 -61.3634 32.6029
21.3243 7.41698 87.3689
-119.047 18.545 75.266
-116.38 20.6352 75.2327
25.5777 -59.0305 64.6475
29.1121 -57.6585 65.6943
-134.494 55.0817 -49.9542
-136.769 52.5863 -51.8509
-177.088 57.922 23.4439
-176.682 59.3981 19.8501
-69.6082 65.4942 -53.491
-62.7305 16.9495 -83.5161
-66.3492 16.924 -83.1782
-66.0851 67.0654 -52.0725
124.451 57.7499 50.1273
121.017 58.3565 50.453
-132.441 -69.8469 26.7938
-132.815 -68.0009 30.9877
-188.854 35.1255 46.2993
-185.107 37.2975 46.4529
-232.726 13.1749 -30.6503
-59.2968 75.491 40.1824
-60.6078 77.0018 36.9458
-231.927 16.7992 -29.6015
-175.271 -46.9575 -42.1659
-178.785 -11.2262 60.8655
-181.796 -8.37418 60.2293
-195.813 53.757 12.6435
-198.365 52.0704 14.669
-195.137 -6.40267 -55.1458
-196.109 -2.36248 -55.0446
-155.752 25.0769 64.3829
-159.45 22.4954 64.2282
-196.21 -54.5515 -7.39875
-193.182 -56.048 -5.79644
-90.8434 75.3146 -32.5783
-86.845 75.7168 -32.9787
-39.2319 -78.967 -36.3288
-42.7328 -77.6539 -38.6045
-35.6916 20.6761 -84.62
-119.248 -59.0761 -50.1302
-116.053 -58.3882 -51.8255
-103.565 -58.9101 54.41
-107.459 -57.2178 55.2843
-176.051 46.9153 -41.8131
26.9004 14.0676 -86.3569
23.7651 15.8215 -86.1657
-175.596 44.5885 -44.5068
-89.4425 -39.5852 72.0942
-93.3114 -38.4443 72.1112
-1.7078 -75.0117 -46.0096
2.63125 -75.2482 -45.6164
-158.021 -33.1942 -59.8748
-154.736 -36.6307 -58.9136
25.2135 73.0953 48.2001
27.7505 71.1057 50.9283
-166.553 38.8244 53.2958
-168.968 36.4525 54.0352
126.639 60.2653 46.3533
124.984 62.2381 44.2487
55.91 20.2656 83.3702
-158.14 12.6564 67.246
-155.543 9.85961 68.4452
-43.4779 73.9115 -45.2731
70.883 53.1081 -65.6384
-40.7447 75.5668 -42.7832
222.064 -27.8282 -30.5325
225.276 -26.0123 -29.2253
-16.3238 80.1314 -35.9213
-19.1863 78.9064 -38.3759
247.477 -7.06407 13.9944
245.671 -9.07238 16.5073
-182.888 19.8606 57.0481
-181.348 22.7042 56.5875
-55.1309 68.9902 51.11
-52.8668 70.8595 48.7929
-221.671 26.3879 -32.12
245.288 -12.7014 14.713
-123.334 -44.658 -62.3485
-128.466 -46.8991 -59.3628
-126.78 -44.2465 -61.7932
-219.064 -11.052 41.7918
-206.363 49.8821 -6.48004
-208.047 48.5199 -9.51721
-173.561 -35.1377 53.1159
-196.132 -34.8661 -42.6464
-56.8169 10.6788 85.0573
-99.1326 80.731 4.83247
-149.825 -21.4653 67.3422
-153.216 -21.71 66.322
-105.311 79.8818 2.25896
-102.939 80.1124 5.35582
-208.259 -1.8244 -49.3015
-211.701 -0.42445 -47.5058
6.78453 76.9264 -42.6696
8.25866 75.1498 -45.6964
-14.4361 86.1934 -17.0054
-18.373 85.5174 -19.7344
12.0159 74.5609 -46.5511
-209.315 34.9101 -34.0773
-209.419 37.487 -31.1348
-243.668 12.2924 -17.9915
-205.987 40.0976 -30.6817
-237.951 16.7316 23.0643
-240.123 13.5373 22.3945
-198.666 34.6928 41.3315
-44.0865 -51.8568 -69.404
-47.932 -52.1743 -68.8518
-63.953 78.6479 -32.5235
-60.7912 79.623 -30.8501
-198.897 37.6905 38.4716
-195.374 39.9877 38.3625
193.193 51.8482 -22.051
191.207 51.613 -24.5774
-17.2485 73.1543 -48.5389
-16.0903 71.3826 -51.155
-160.707 -8.67301 67.1327
-158.251 -5.14063 68.2019
-159.178 -12.1832 67.0335
-155.583 -13.9457 67.7196
-181.216 -39.3672 -46.6229
-187.067 -34.8935 -47.3509
234.201 -8.19804 31.0077
231.367 -8.83952 33.3482
-185.723 -37.8048 -45.7363
-220.423 -36.3319 -21.8075
-223.2 -33.1947 -23.2995
-73.9014 69.7692 46.9852
-199.242 43.3768 -31.6589
-202.406 40.5218 -32.9583
-78.6962 72.0692 42.3297
-74.8172 71.9389 43.3989
-199.862 -47.1004 -25.2006
-196.405 -49.1626 -24.5822
-156.237 -38.5609 57.171
-155.213 -34.6026 59.9764
-162.895 56.2698 -36.4559
-159.744 58.0974 -35.2774
245.94 -16.0777 8.95239
246.756 -13.0533 10.9096
-202.188 25.1259 -45.9101
246.469 -16.6405 5.4594
-222.675 -40.7293 -3.81035
-219.564 -42.6764 -4.53585
-225.909 36.4562 -12.9115
-224.083 36.2161 -16.8754
-228.9 -34.8682 10.6502
-231.376 -33.5772 7.8918
-225.472 -37.7616 9.69453
119.555 74.8279 19.8711
-172.163 -51.1024 -38.7774
115.359 75.6435 19.8192
47.9193 12.179 -85.5251
51.5058 10.7788 -85.4578
-180.22 -22.1725 57.2358
-179.931 52.3267 -32.2831
-165.448 0.849497 66.2722
-168.571 2.82769 65.2457
-181.019 -17.4144 58.5574
36.4519 -59.753 63.3317
37.7864 -57.206 65.5489
-159.984 -59.9392 -31.9012
-182.766 -21.7974 -56.3849
-184.31 -18.0293 -57.096
-11.9296 15.149 -86.5857
-188.59 -54.9977 19.1018
-192.466 -53.121 19.6704
-145.928 9.34268 -71.0603
-143.73 12.1491 -71.1842
-174.351 52.4317 35.6826
-173.418 50.7267 38.5857
-187.169 39.7271 -43.3216
-231.494 33.499 -7.79801
-229.089 35.9729 -4.95875
-234.901 30.8734 -5.94302
241.404 7.72109 23.4445
239.892 10.8371 24.1019
240.609 13.4021 21.8297
-138.878 -61.8298 -39.4935
-138.123 -60.1621 -42.2942
-141.495 -58.2493 -43.5875
-200.351 -41.1638 -33.6916
-218.715 20.1176 -38.5058
-52.6522 9.09959 85.5675
-56.6794 -81.1828 27.5687
-60.1939 -81.4606 25.7793
-152.597 56.1719 41.6872
-153.35 58.0666 38.6416
-189.412 -9.89558 -57.0409
-186.064 -8.87826 -58.5377
64.9139 -8.70364 84.5716
67.8938 -7.06516 84.4377
-196.835 -37.2188 40.1911
-200.415 -34.6091 40.3568
-180.668 -48.2453 -37.6849
-174.532 -52.0916 -36.0705
-215.618 -38.5089 23.8563
-218.655 -36.4148 23.7608
-178.254 -50.9816 -35.422
-121.488 47.9813 -60.2894
-71.0283 59.8034 59.5809
26.871 -68.2986 54.6891
24.8073 -66.5861 56.8766
-87.1863 -8.5747 -82.0964
-84.0072 -6.2651 -82.7087
-30.1505 86.0219 -15.2622
-33.9912 85.5654 -16.7659
-74.8547 60.2858 58.5117
-117.553 49.0313 -60.3994
67.0832 -10.9604 -84.1006
63.3337 -11.5677 -84.3748
-122.277 44.7744 -62.5198
-75.8909 64.2992 -53.8933
-79.4361 64.4388 -53.0951
-210.937 -46.4387 -11.8318
-207.911 -47.2772 -14.7162
-70.385 -66.9048 51.587
-82.2034 61.9397 -55.4992
181.003 57.5734 -20.4512
187.791 54.7434 -20.7266
-57.9914 -57.7659 -63.2089
-60.2514 -59.9477 -60.8755
185.028 56.5067 -18.9618
-52.2059 4.9829 85.9389
170.803 -60.9399 -21.4146
166.658 -61.8363 -22.7992
-242.161 -11.2304 20.9366
-241.443 -7.71419 23.3973
231.622 25.8611 -22.5152
229.371 25.1806 -25.8602
225.984 27.6878 -26.9257
-235.384 -18.9689 -24.5116
-234.849 -16.6286 -26.7384
-226.064 27.1664 -27.3712
-222.948 28.4633 -29.1264
-220.766 31.3783 -28.1505
-250.634 -7.2939 -0.178607
-176.038 45.3118 43.5524
58.6287 51.2981 -68.4958
59.7227 48.4703 -70.4127
128.097 68.3812 32.5434
131.591 68.3041 30.9601
-176.918 47.6231 40.5458
-181.022 46.7571 39.3175
18.7048 -86.4179 15.2683
142.029 69.3641 -21.516
141.087 68.3969 -25.0764
23.2385 -86.1703 15.8921
181.098 -44.0244 42.3151
25.6367 -86.6619 12.3796
-189.024 21.649 -53.8597
-189.445 17.9028 -55.0412
-212.327 -45.0143 14.0796
-120.845 -47.001 -61.2126
-24.3212 -37.2706 79.2621
52.3019 18.5557 -84.0522
55.8165 16.7679 -84.1511
-25.2922 -41.1199 77.297
-119.138 -6.52458 -77.2248
-115.758 -7.73992 -77.7402
-200.046 16.479 50.7244
-215.148 -43.264 14.3204
-153.413 33.0704 61.3912
-156.835 31.3791 61.2201
-157.698 28.2315 62.4685
-79.9679 -83.4309 0.602848
-62.793 73.1804 -43.6565
-62.1751 71.1251 -47.0312
-79.8045 -83.3553 -4.02119
-209.642 -18.6809 44.8804
-59.486 71.7528 46.5007
-205.671 -19.6729 46.6701
-191.283 -46.3882 33.3542
-190.153 -45.0075 35.9368
-195.128 47.3283 29.0258
-192.216 -42.6379 37.4509
-97.658 19.8795 78.6205
-94.0553 21.0353 78.8571
-195.846 -41.8718 35.9842
-247.68 -8.81133 12.4835
188.065 -42.0216 40.5959
184.93 -44.2656 39.9695
-127.103 75.5226 7.90303
-123.451 76.0619 9.62989
48.8423 1.71273 86.3076
130.444 15.5971 -73.6036
-179.682 46.534 -40.3219
198.595 13.1811 52.3605
200.49 9.43472 52.2853
113.331 74.8987 23.7
109.587 75.3549 24.3996
149.551 63.7457 -30.6964
145.72 65.3559 -29.5445
-166.876 -45.6689 -47.4234
129.839 19.3607 -72.8369
-209.798 43.7091 -21.088
-206.938 46.1326 -19.3111
126.464 20.2131 -73.3307
-61.8842 -0.272638 85.294
-59.1623 2.64203 85.4897
-53.8333 -1.94663 85.9384
[...]
POINT_DATA 10490
VECTORS F double
1.34904e-08 3.0893e-08 7.44687e-09
1.26868e-07 8.97146e-08 -4.23005e-08
1.43567e-07 7.16541e-07 3.36145e-07
5.73137e-08 -7.29691e-09 -2.651e-08
2.87518e-07 2.57555e-07 -7.42268e-09
1.81159e-07 1.93831e-07 -5.88797e-09
8.36437e-08 2.58594e-08 -7.26744e-08
-1.93467e-06 2.38927e-06 1.23615e-07
9.52437e-07 7.21919e-07 1.44967e-07
1.03667e-06 6.25834e-07 -3.36999e-08
1.21631e-08 7.33124e-08 -4.09376e-08
1.06865e-08 5.75233e-08 -1.98057e-08
1.01127e-07 3.5439e-07 1.86486e-07
-2.38673e-06 3.99787e-06 1.29628e-07
1.42179e-07 1.19469e-07 2.89156e-09
3.39961e-06 6.79188e-07 -1.10955e-06
4.38023e-06 7.92721e-07 -1.97326e-06
-1.06113e-08 2.03465e-08 1.10311e-08
-1.25327e-08 1.97609e-08 1.27798e-08
-2.69879e-05 5.00699e-06 4.98081e-06
-2.60738e-05 4.27088e-06 3.56146e-06
-3.20176e-06 1.85241e-06 -2.74019e-07
-2.9091e-06 1.34839e-06 -2.26837e-07
3.09592e-08 2.17913e-07 -1.88561e-07
5.75298e-08 2.44888e-07 -2.25343e-07
1.59644e-08 1.67267e-07 9.92039e-08
7.5507e-10 1.42768e-07 8.70697e-08
-4.52784e-08 1.91634e-07 2.46259e-07
-1.89816e-07 1.48394e-07 1.54697e-07
2.51898e-07 2.11072e-07 -1.9325e-07
5.66466e-07 2.57441e-07 1.1445e-07
3.76657e-07 2.82122e-07 -8.49472e-08
1.4424e-07 3.01687e-06 8.44533e-07
-2.75357e-07 1.63466e-06 4.51981e-07
-2.07123e-06 3.15546e-06 -2.3666e-08
1.45778e-08 2.8599e-08 5.96153e-08
9.03684e-05 1.6539e-05 3.34567e-05
9.81939e-05 1.94317e-05 3.9748e-05
3.94077e-08 4.76781e-10 -5.0302e-08
3.39931e-08 -2.68401e-09 -2.24643e-08
6.44215e-07 3.51695e-07 1.19348e-08
2.71847e-08 2.9163e-08 6.23519e-08
3.07416e-07 2.86135e-06 5.4217e-07
-1.56149e-06 3.77469e-06 -3.50183e-07
-2.12394e-08 1.28896e-08 -9.31415e-09
-3.608e-08 3.2819e-08 1.52834e-08
1.2967e-06 8.82403e-07 -5.22555e-08
1.13022e-06 1.65325e-06 2.82704e-07
-5.15214e-08 1.0306e-07 -6.79117e-08
-4.48111e-08 1.16002e-07 -8.16213e-08
5.31557e-08 1.45953e-07 -5.44188e-08
6.98762e-08 1.54914e-07 -5.12718e-08
9.82445e-07 2.37479e-06 6.99561e-07
1.0567e-06 2.29719e-06 8.02587e-07
-3.99652e-08 9.75826e-08 1.12615e-09
-2.80622e-08 7.36399e-08 4.80571e-09
5.91606e-08 9.69584e-08 1.0341e-07
1.7821e-07 3.56093e-08 -6.71774e-08
-1.74126e-08 1.15927e-08 -1.66543e-08
-1.6449e-08 6.98795e-09 -1.52793e-08
-2.55481e-06 3.01018e-06 -2.37758e-07
-2.33313e-06 3.925e-06 -1.75321e-07
1.33729e-08 8.67827e-08 7.20692e-08
-3.87897e-08 5.59365e-08 9.71734e-08
-1.10234e-08 1.2443e-08 9.95533e-10
1.23266e-05 6.21529e-06 2.52873e-06
-2.08541e-08 3.68386e-08 2.45611e-08
-4.11979e-07 4.92531e-06 -7.03245e-08
1.82927e-07 3.87011e-06 -1.80814e-07
-8.32469e-07 6.78884e-06 5.61308e-07
-3.35973e-06 5.31241e-06 9.9849e-08
-2.28473e-06 4.09444e-06 6.95599e-10
-1.28616e-06 2.13713e-06 -2.40016e-07
5.61471e-09 4.48416e-08 5.57915e-08
2.47979e-09 1.21118e-08 1.14109e-09
-3.1818e-09 4.23542e-09 -8.9863e-09
3.638e-07 3.86056e-07 -2.52405e-07
9.54606e-07 1.60519e-06 -2.09207e-07
5.1533e-07 5.62473e-07 -3.61308e-07
1.10703e-09 2.88299e-08 3.00196e-08
-9.55755e-09 1.02199e-08 1.06323e-08
-2.91289e-09 1.05013e-08 2.45972e-09
1.98426e-08 1.56289e-08 3.96241e-08
2.67157e-08 6.25068e-09 4.2259e-08
1.37853e-08 3.49372e-09 2.56973e-08
1.63638e-08 1.81671e-08 3.7907e-08
3.91e-08 3.38798e-08 8.34026e-08
2.39343e-07 2.97858e-07 -9.32262e-08
4.06075e-08 2.8972e-08 7.8061e-08
-3.16281e-07 4.88648e-06 -4.0538e-07
2.24658e-06 2.8099e-06 -2.57299e-07
2.08097e-06 3.28055e-06 -5.05688e-07
-2.44248e-08 1.98218e-07 1.82178e-07
-6.78545e-08 2.91965e-07 2.59932e-07
4.92374e-06 3.02058e-06 1.70765e-06
5.98492e-06 2.5218e-06 6.24798e-07
4.43096e-07 3.41989e-07 -4.35168e-07
1.30344e-06 5.84599e-07 -3.28923e-07
2.6629e-05 1.93441e-05 1.94423e-05
2.12515e-06 1.88883e-06 1.87912e-07
1.87447e-06 5.83479e-07 -6.43383e-08
2.56215e-05 2.1736e-05 2.40132e-05
-1.0737e-06 3.46044e-07 -7.2314e-08
-1.13916e-06 3.97801e-07 -1.25595e-07
3.83994e-09 1.32461e-08 3.68539e-08
-1.52491e-10 1.83782e-08 4.02501e-08
1.02165e-06 5.45433e-07 9.64034e-08
1.01026e-06 6.7444e-07 -4.86454e-08
6.05039e-08 8.43777e-08 -1.99757e-08
4.60941e-05 2.22377e-05 -3.34502e-05
4.6497e-05 2.20334e-05 -3.6583e-05
3.49345e-08 8.70039e-08 1.58653e-08
4.41312e-08 -2.24704e-08 2.56541e-09
4.4803e-07 3.83362e-07 2.3183e-07
2.24422e-07 1.43347e-07 1.02864e-07
6.73243e-07 3.65931e-07 -2.79306e-07
8.0836e-07 3.85577e-07 -3.03624e-08
-5.9245e-09 1.17496e-07 -1.10753e-08
1.254e-07 1.62563e-07 -6.16747e-08
4.01942e-07 2.40898e-06 -8.19245e-07
1.27358e-06 9.62171e-07 5.00973e-08
7.99052e-09 -1.938e-09 -1.16514e-08
-1.31434e-09 -6.48375e-10 1.16305e-08
2.68626e-05 7.44285e-06 8.03563e-06
2.81998e-05 9.19784e-06 1.20258e-05
-4.38609e-08 5.02179e-08 -1.03359e-07
-2.98426e-08 6.49031e-08 -1.2651e-07
1.24334e-06 1.0221e-05 2.43319e-06
1.27447e-07 1.56663e-07 -2.21737e-07
1.24421e-07 1.82259e-07 -2.3945e-07
4.13534e-08 1.50295e-07 1.72361e-07
8.81074e-08 2.41393e-07 2.70802e-07
2.42877e-06 7.44908e-07 -4.16189e-07
-5.27327e-07 6.29672e-06 1.00563e-06
-2.34368e-06 3.56047e-06 5.74623e-07
7.32689e-07 9.81889e-08 -2.55543e-07
2.51077e-07 5.87486e-07 3.60709e-07
3.09456e-07 9.0263e-07 5.30239e-07
-6.31242e-08 8.22645e-08 -1.33833e-07
-6.19158e-08 5.94582e-08 -9.85189e-08
1.24379e-07 2.36461e-07 -1.71281e-07
2.70141e-08 1.49455e-07 -1.01613e-07
-4.1406e-05 1.76891e-05 -2.41734e-05
-3.77663e-05 1.86968e-05 -2.35847e-05
2.68226e-06 1.19371e-06 1.56663e-07
2.33167e-06 1.37283e-06 -3.34645e-08
-5.87023e-07 1.43982e-07 9.14756e-09
-1.44574e-06 1.68746e-08 4.76212e-07
-1.09909e-06 9.88505e-07 -1.50047e-07
9.62346e-07 1.03981e-06 8.13694e-08
2.56307e-07 2.76835e-07 3.1431e-08
4.60515e-05 3.4493e-05 5.08974e-05
-5.68925e-06 2.801e-06 1.5141e-06
5.32349e-05 3.19808e-05 5.02794e-05
-2.27516e-09 7.32193e-09 -8.69829e-09
-1.47935e-09 5.72198e-09 -6.48971e-09
0.000113038 4.14172e-05 8.61012e-05
0.000100322 4.57486e-05 8.79248e-05
-7.77336e-10 -5.43159e-10 1.4097e-09
-1.30314e-09 5.87713e-10 2.69851e-09
3.83306e-07 5.54353e-07 -4.25467e-08
3.28304e-07 6.10086e-07 -1.1597e-07
3.98863e-05 3.06855e-05 -3.6153e-05
4.21218e-05 3.01595e-05 -3.82116e-05
1.99009e-07 7.79576e-08 -1.04103e-07
-3.98615e-09 -1.69123e-09 6.67773e-09
2.43083e-07 1.92805e-07 -1.9697e-07
1.1572e-08 1.2924e-07 -1.05171e-07
2.25748e-07 3.67206e-08 -8.29987e-08
5.63012e-10 1.33699e-07 3.5718e-08
5.54449e-07 2.95836e-07 1.15554e-07
5.965e-07 3.21451e-07 4.23641e-08
9.6881e-08 1.38849e-07 1.3061e-07
9.02972e-08 4.28912e-09 -5.43498e-08
2.22254e-06 3.87435e-06 -3.04663e-07
3.08845e-05 4.76657e-06 -2.0625e-06
-3.72533e-08 2.75514e-07 7.76716e-08
-7.05336e-08 3.75308e-07 1.02904e-07
2.71071e-05 4.53143e-06 -5.52367e-06
2.906e-05 4.95133e-06 -5.68025e-06
4.78949e-08 9.33797e-08 -2.82253e-08
6.6872e-08 1.87172e-07 -3.8157e-08
1.8366e-06 3.41591e-05 6.16188e-05
-2.43585e-05 2.93817e-05 4.77804e-05
0.000227785 1.10749e-05 3.24565e-05
0.000204942 1.35474e-05 3.53437e-05
-2.56718e-05 2.24452e-05 3.51391e-05
2.99908e-07 2.23578e-07 3.5088e-09
8.65343e-07 4.70368e-07 -1.46268e-07
1.04545e-07 1.79229e-07 -5.0896e-08
7.79862e-07 5.95425e-07 1.37143e-07
6.90321e-08 2.04289e-07 -6.10046e-08
8.16911e-08 1.72026e-07 3.25199e-09
4.20191e-07 -1.79599e-07 3.98024e-07
4.32685e-07 3.19931e-07 -2.72693e-07
3.9788e-07 4.05342e-07 -3.4107e-07
5.89558e-05 1.94394e-05 3.28146e-05
6.32735e-05 1.82343e-05 3.17967e-05
6.97238e-07 -3.70498e-08 4.77621e-07
5.16385e-07 2.93037e-07 1.6523e-08
-7.27388e-08 3.50149e-08 4.30861e-09
-1.01385e-07 5.55982e-08 2.0191e-08
2.63232e-05 4.71744e-05 6.99525e-05
4.51663e-06 4.25884e-05 5.92545e-05
7.44745e-07 4.2486e-07 2.73159e-07
9.13525e-07 3.52307e-07 2.86067e-07
1.9729e-07 1.5974e-07 8.63882e-08
3.14661e-07 3.74624e-07 1.65654e-07
1.01167e-07 9.81138e-08 -1.30987e-07
1.1471e-07 7.64739e-08 -1.11837e-07
1.26518e-09 9.82997e-09 1.42926e-09
8.59758e-10 9.71217e-09 1.84422e-09
8.73429e-08 6.28529e-08 -9.53765e-08
3.50582e-09 2.72955e-09 -8.88572e-09
-1.1866e-09 4.84904e-09 -5.5179e-09
3.20567e-05 1.43624e-05 -1.51539e-05
7.87204e-07 6.277e-07 2.53488e-07
8.17963e-07 5.91657e-07 1.12429e-07
2.74613e-05 1.00911e-05 -1.09303e-05
3.09612e-05 1.42123e-05 -1.70238e-05
4.05895e-09 1.37486e-08 -2.96375e-08
3.79429e-10 7.39213e-09 -1.51546e-08
6.90551e-08 2.66578e-07 2.02906e-07
2.03146e-07 2.47553e-07 2.07186e-07
1.57158e-06 1.1059e-06 8.47231e-07
1.95721e-06 1.00075e-06 5.63049e-07
1.74083e-09 6.58466e-09 5.97223e-09
4.93115e-10 7.04446e-09 7.06402e-09
3.27953e-07 2.32334e-07 -4.96734e-08
4.76061e-10 2.75251e-09 5.75719e-09
-2.80139e-08 1.96957e-08 -1.00986e-08
-2.12694e-08 9.81721e-09 3.36788e-08
3.09409e-07 2.36289e-07 4.37904e-09
4.00172e-07 3.11107e-07 1.70996e-08
1.24444e-08 -1.70992e-09 2.71475e-08
-2.18421e-09 1.15147e-08 4.11473e-08
1.88862e-09 -5.41257e-09 -1.57038e-08
-2.06155e-06 2.11386e-07 7.22497e-07
5.1365e-08 -1.98337e-08 -1.78157e-09
-2.13996e-06 2.64442e-07 5.15628e-07
5.66043e-07 1.3998e-06 2.38166e-07
4.92459e-07 9.35106e-07 1.54284e-07
1.12777e-07 3.18334e-07 1.66794e-07
1.56861e-06 5.2768e-07 -2.15068e-07
4.69602e-07 2.09277e-07 1.40848e-07
4.81451e-07 2.93472e-07 1.3957e-07
1.55694e-07 3.44705e-07 1.61437e-07
-3.8457e-08 1.93457e-07 1.85234e-07
-1.79378e-08 2.04922e-07 1.80105e-07
4.19559e-08 1.13762e-08 -4.71355e-08
6.93362e-08 6.40341e-08 -5.22706e-08
2.23041e-07 1.22576e-07 -1.26855e-07
7.35927e-07 9.10218e-06 1.5801e-06
7.12995e-09 9.61826e-09 3.63125e-08
2.13306e-09 8.3528e-09 2.51133e-08
1.08749e-06 7.5689e-07 -1.73902e-07
8.12533e-07 1.08489e-06 -1.57001e-08
1.78316e-06 1.13064e-06 -5.94643e-07
1.2904e-06 8.88943e-07 -4.58613e-07
1.07164e-06 1.03408e-06 3.81439e-07
3.54938e-07 2.99378e-07 -3.94239e-09
3.28005e-07 2.66046e-07 7.47727e-08
2.80053e-07 2.20822e-07 -2.08061e-07
-1.13161e-08 1.86611e-08 8.1194e-09
-7.81489e-09 2.33261e-08 -9.64319e-10
-8.1697e-09 2.28758e-08 -3.02117e-09
7.29578e-08 2.87276e-08 -7.63851e-08
1.39252e-08 5.50625e-08 -8.38929e-08
7.37906e-08 1.12187e-07 -1.79251e-07
-1.08898e-08 6.5155e-08 -7.16772e-08
1.30756e-07 2.0284e-07 1.50454e-08
3.33218e-06 5.98129e-06 -3.85052e-07
2.52691e-08 1.97566e-08 6.45391e-08
1.83836e-08 1.92166e-08 6.598e-08
1.09173e-06 2.10236e-07 2.05977e-07
3.42264e-06 1.13215e-06 -3.83438e-08
1.40994e-07 2.48178e-07 -1.00375e-07
1.89399e-07 1.45867e-07 -9.58277e-08
1.73993e-07 5.9051e-07 4.44196e-08
-6.62206e-09 1.02934e-06 8.67777e-08
2.09534e-08 7.22984e-08 7.95146e-08
1.55791e-08 7.35394e-08 7.2537e-08
2.11728e-08 2.32138e-08 -4.2147e-08
1.86478e-08 4.03838e-09 -1.68786e-08
1.56845e-08 3.34701e-09 2.27597e-08
1.77963e-08 1.21984e-08 3.87443e-08
1.50132e-08 1.75217e-08 -3.44681e-08
7.64845e-06 4.07663e-06 1.35746e-06
2.63806e-05 1.93278e-05 -1.55496e-05
-4.24922e-09 2.20353e-07 2.75444e-07
-1.15612e-07 1.78822e-07 2.15522e-07
8.30889e-07 1.64212e-06 -2.79545e-07
7.27467e-07 1.95346e-06 -2.38432e-07
0.000164308 1.28026e-05 3.24176e-05
0.000148969 1.49013e-05 3.9071e-05
2.43885e-05 1.69033e-05 -1.35959e-05
7.65549e-06 5.50934e-06 2.64824e-06
-8.57272e-07 6.88223e-07 -1.7341e-07
-8.86787e-07 5.83325e-07 -1.61467e-07
5.00753e-06 4.03891e-06 1.69347e-06
2.45142e-05 1.76878e-05 1.68767e-05
2.22038e-05 1.41986e-05 1.3165e-05
1.27375e-09 -6.0493e-09 2.09648e-08
-2.08514e-08 1.5341e-08 -1.32189e-08
-1.37199e-07 6.5423e-08 6.19306e-08
2.08369e-05 1.42418e-05 1.21159e-05
-1.9145e-07 5.84875e-08 -4.27931e-08
-1.50708e-07 7.25549e-08 2.44606e-08
-4.55099e-07 2.82365e-07 -2.06931e-07
-2.79835e-07 1.60533e-07 -1.24176e-07
-1.87255e-07 7.3125e-08 -5.78888e-09
1.14718e-06 5.46845e-06 -2.31758e-07
9.07646e-09 5.06865e-09 -5.56159e-09
9.46761e-09 6.85708e-09 -1.01247e-08
-1.36893e-08 3.25673e-08 -1.91486e-09
7.50491e-09 2.2907e-08 1.70352e-08
-4.83951e-09 1.317e-08 9.03142e-09
-1.40212e-08 2.64176e-08 1.04985e-08
-1.73442e-08 2.3031e-08 5.86238e-09
-3.16945e-08 5.53752e-08 -5.59068e-09
4.41278e-08 3.0887e-09 -4.93726e-08
2.7204e-07 3.18808e-07 4.13415e-08
2.75853e-07 1.55841e-07 -1.0622e-07
2.02535e-07 1.91242e-07 1.87078e-08
-2.27217e-08 9.59176e-08 -1.33336e-08
9.74179e-07 4.65944e-07 -2.68647e-09
-3.93513e-06 3.37659e-06 2.11643e-06
-2.76313e-06 3.46315e-06 2.09702e-06
-1.07223e-06 5.34032e-08 4.04495e-07
-9.25906e-07 -6.12295e-08 6.16889e-07
1.52828e-06 7.34345e-07 -4.60969e-08
1.39484e-06 2.61815e-07 4.74888e-07
-1.46315e-08 9.65134e-09 5.68227e-08
-4.87445e-07 -1.44142e-08 -4.40401e-07
-8.41098e-07 6.50728e-08 -4.01877e-07
-4.47091e-09 7.70965e-10 4.9839e-09
-1.14589e-08 6.56936e-09 1.28392e-08
-1.08151e-08 -6.45886e-10 -1.78252e-09
1.71934e-07 5.04467e-07 1.28896e-07
1.33337e-07 4.90947e-07 1.035e-07
-2.68429e-08 2.20577e-08 2.09642e-08
3.46035e-07 2.42514e-07 -2.69847e-07
-5.18734e-08 2.7136e-07 1.25649e-07
-1.50612e-06 2.02245e-06 3.31745e-07
-1.43041e-06 1.93996e-06 2.70396e-07
-1.49036e-07 2.47889e-07 1.25898e-07
-8.6556e-08 1.06544e-06 -7.3667e-08
-2.39526e-08 1.12739e-06 -1.07876e-07
3.18149e-07 5.90689e-07 -3.82855e-08
-2.58367e-08 2.66735e-08 3.30636e-08
1.61093e-06 2.65134e-06 -9.35377e-07
1.83935e-06 1.88927e-06 -3.91471e-07
-1.23008e-07 2.09231e-06 -9.83603e-07
-3.24088e-08 3.73252e-09 -9.696e-09
3.63875e-05 2.44238e-05 3.45331e-05
2.87844e-05 2.37423e-05 3.12464e-05
7.61533e-09 -3.00548e-10 -1.2281e-08
3.91753e-09 7.78789e-08 3.46557e-08
4.19869e-05 2.44813e-05 -3.11999e-05
1.60199e-08 1.33517e-07 6.49253e-08
2.47031e-08 2.78167e-08 5.60321e-08
4.10253e-08 2.36373e-08 5.61802e-08
3.65498e-07 3.74172e-07 -3.09288e-07
2.67815e-08 2.39599e-08 4.41071e-08
2.86081e-06 6.14152e-06 -1.11786e-06
3.80684e-06 4.07782e-06 -5.31872e-07
1.34559e-08 6.64903e-08 8.63345e-08
-1.26036e-08 7.24855e-08 2.05478e-08
-2.54609e-08 1.3609e-08 2.85273e-08
-1.34003e-08 4.21822e-10 8.05828e-09
7.25039e-06 1.53836e-06 -4.24616e-07
9.18571e-06 2.27765e-06 -3.57304e-06
-2.5263e-06 2.10891e-06 1.33179e-07
-1.59793e-07 3.6198e-07 4.2035e-08
2.42023e-06 9.6024e-07 -2.12231e-07
-5.9671e-08 7.83275e-08 7.9901e-09
-2.50272e-08 9.17314e-08 -4.80362e-09
-1.87612e-06 1.09531e-07 7.52183e-07
-2.142e-06 4.96732e-07 -3.56291e-07
-8.87391e-07 2.1645e-07 -7.98124e-08
-1.0406e-06 1.30382e-07 -3.39942e-07
-7.33834e-08 9.85354e-08 -6.32751e-08
-4.17307e-07 3.51293e-07 2.30286e-09
4.93363e-07 1.65221e-07 -2.58472e-07
4.93674e-07 1.83791e-07 -2.08618e-07
-4.37996e-07 3.6111e-07 7.05927e-09
6.95036e-07 4.97917e-06 7.76497e-08
1.78853e-06 4.25356e-06 2.00764e-08
1.19898e-06 3.76324e-06 1.77192e-07
1.33476e-08 1.53972e-08 5.52839e-08
7.61073e-06 1.63492e-06 2.72202e-07
8.47315e-06 1.81367e-06 -1.17999e-06
-1.4732e-06 6.5825e-06 -1.14792e-06
1.28111e-08 -2.10498e-09 1.52204e-08
1.99786e-06 4.28886e-06 6.57231e-08
3.66214e-06 8.26233e-06 4.377e-06
4.87012e-06 6.00676e-06 2.61494e-06
9.25554e-06 8.02367e-06 3.77731e-06
1.09232e-07 4.12994e-07 7.00526e-08
7.62828e-08 5.35672e-07 5.07882e-08
-3.16284e-07 1.56017e-06 1.77672e-07
-6.67568e-08 8.67971e-07 1.02944e-07
6.76308e-07 2.94873e-07 1.48609e-07
3.51914e-07 5.27218e-07 1.06169e-07
1.92473e-06 6.49599e-07 -3.21326e-08
2.55255e-06 1.06331e-06 3.8224e-07
-3.69521e-08 1.00047e-09 2.8793e-08
-3.15893e-08 -2.4274e-09 1.49084e-08
7.46151e-08 1.85686e-08 -8.10075e-08
5.87152e-08 8.459e-09 -4.92342e-08
-2.16134e-08 7.18965e-08 1.08301e-07
1.49205e-08 5.88436e-08 1.15184e-07
-1.55119e-08 6.08132e-08 1.01216e-07
2.64932e-07 1.01015e-07 2.02482e-07
3.96827e-07 2.4224e-07 -6.43286e-08
5.60827e-07 2.64109e-07 1.40986e-07
2.32447e-08 7.48423e-08 -8.15791e-08
1.25767e-08 7.61992e-08 -7.77519e-08
-4.2111e-08 5.79976e-07 -3.35673e-07
3.28268e-08 3.37738e-07 -2.00618e-07
-4.4889e-07 3.26889e-06 -5.91914e-07
-1.07024e-06 2.39326e-06 -4.40177e-07
-1.44254e-08 6.28753e-08 -5.56415e-08
2.07758e-07 -3.67635e-09 -4.11838e-08
-2.07381e-08 5.20812e-09 1.19476e-08
1.3226e-08 3.3066e-08 -5.10398e-08
-1.50764e-06 3.99069e-06 -1.7292e-07
-8.00422e-08 3.70142e-07 -2.74841e-07
-1.41914e-07 3.21979e-07 -2.27031e-07
2.0653e-05 2.97646e-05 2.9311e-05
1.66884e-06 8.61842e-07 1.25316e-06
8.31677e-05 7.29704e-06 6.22142e-06
9.34754e-05 7.63529e-06 -5.65523e-06
7.59752e-05 7.82638e-06 -1.43741e-05
9.01199e-05 7.45034e-06 -2.30839e-06
1.85314e-06 8.43036e-07 1.1982e-06
1.98971e-05 2.46004e-05 2.34176e-05
1.87516e-05 2.45146e-05 2.14687e-05
4.51634e-08 2.90068e-08 -8.0733e-08
-2.52508e-08 5.70494e-09 -2.86435e-08
-1.25787e-08 4.70737e-09 -5.12959e-08
5.07569e-08 1.82583e-08 -6.69774e-08
2.28384e-08 8.47741e-09 -3.28486e-08
1.38893e-07 2.44138e-07 8.64993e-08
1.02144e-07 3.63068e-07 2.17772e-07
-6.44672e-07 8.18702e-08 2.44289e-07
-2.17477e-05 9.4518e-06 -9.34143e-06
-2.28033e-05 9.59884e-06 -1.01016e-05
-8.76983e-07 7.92067e-07 -2.19865e-07
2.12008e-07 2.03523e-07 -1.65251e-07
3.59559e-07 3.83652e-07 1.08181e-07
1.87588e-07 5.16183e-07 -2.7347e-07
1.76818e-07 2.16517e-07 -1.45331e-07
1.2455e-07 4.58628e-09 7.43033e-08
1.02042e-07 5.42311e-08 1.30733e-07
6.41776e-08 3.25467e-08 8.43376e-08
1.18792e-06 1.59464e-06 -1.08972e-07
1.31713e-06 1.80677e-06 -1.11859e-07
-4.40623e-05 1.82188e-05 -2.74584e-05
-9.33593e-08 1.97765e-07 4.23025e-09
3.3571e-08 6.63559e-09 2.22082e-08
-2.9311e-08 6.81674e-08 1.23663e-07
6.29231e-07 1.91687e-06 -2.03493e-07
6.58742e-07 1.37218e-06 -1.69337e-07
-5.28868e-08 8.88346e-08 -1.78097e-09
1.16763e-07 1.85633e-07 4.03974e-09
-1.04654e-07 1.57973e-07 -1.16673e-08
-1.59413e-05 1.01369e-06 -7.68726e-07
2.17304e-09 1.04253e-07 -5.04706e-08
-4.111e-09 8.88671e-08 -4.42721e-08
-9.48447e-06 -1.50877e-07 -1.82058e-06
7.90318e-07 7.29441e-07 -2.54325e-07
-1.31251e-05 2.65158e-06 1.99518e-06
-1.11598e-08 1.01737e-07 1.72476e-09
1.63181e-06 6.05422e-07 1.30842e-07
1.80546e-06 4.79621e-07 4.61627e-07
2.44853e-09 6.69788e-08 -3.48841e-08
-9.25838e-09 7.90382e-08 2.37354e-08
1.13069e-07 2.02404e-07 -1.21212e-07
1.7765e-08 -1.04569e-08 -1.75806e-08
1.75348e-08 4.2117e-10 -3.64957e-08
4.43008e-07 4.60946e-07 -1.23076e-07
5.50533e-07 3.87896e-07 6.69627e-08
2.6618e-06 2.09926e-06 8.34306e-07
3.23088e-05 2.64729e-05 3.38661e-05
2.49653e-05 2.62568e-05 3.13706e-05
1.70917e-08 7.85157e-10 2.42316e-09
-1.53168e-08 2.22405e-10 -1.56299e-08
2.49232e-05 2.5664e-05 2.86432e-05
3.56211e-07 9.59835e-08 1.5294e-07
1.81159e-07 1.42952e-07 1.42238e-08
-2.16966e-08 5.5392e-08 -1.66819e-09
-1.0383e-07 2.02098e-07 1.81548e-07
-9.31625e-08 2.22002e-07 1.82396e-07
-4.65298e-07 3.4775e-06 2.94554e-07
-1.01108e-07 4.36866e-08 4.05659e-08
-2.49095e-08 1.21848e-07 9.58797e-08
-3.54239e-05 3.26538e-05 -5.37538e-05
-2.70734e-05 3.01318e-05 -4.53994e-05
-6.20724e-07 3.46734e-06 3.07454e-07
1.07432e-06 1.20377e-06 -2.34541e-07
-2.0886e-07 2.95256e-06 3.91518e-07
-2.62475e-09 -3.42444e-09 -2.30093e-08
3.11284e-07 7.69658e-07 -1.98941e-07
5.915e-06 3.5459e-05 -3.46728e-05
3.95178e-07 5.29669e-07 -6.70223e-08
9.12639e-07 6.14766e-07 6.22691e-07
5.92181e-08 1.04222e-07 -5.26728e-08
-3.25217e-08 4.6931e-08 2.97349e-08
8.6433e-09 2.10247e-09 -3.46749e-09
-4.13749e-09 3.15977e-09 -2.04003e-08
-1.89087e-05 2.05724e-05 -2.0239e-05
-3.01e-08 6.20443e-08 9.65169e-08
1.2737e-06 4.8259e-07 -1.64846e-07
-5.32196e-09 -2.60805e-09 2.00672e-09
6.79629e-08 1.31893e-07 1.44253e-07
2.19541e-08 9.4182e-10 2.24869e-08
1.4682e-05 2.47058e-05 -1.81786e-05
2.61694e-07 8.89581e-08 -1.04819e-07
1.4273e-05 2.52837e-05 -2.0789e-05
0.000327101 3.09933e-06 -5.44142e-05
0.000305356 6.46431e-06 -5.93067e-05
1.54978e-08 9.82352e-08 9.40603e-08
0.000167405 3.86059e-05 -0.000108996
1.34885e-08 1.10767e-07 9.03854e-08
-4.91769e-08 6.36532e-08 1.19784e-08
-5.71993e-08 4.63056e-08 -5.56011e-09
4.29239e-08 1.5268e-07 1.28778e-07
1.04005e-06 1.07552e-06 -3.41099e-07
1.44027e-08 5.07007e-10 -9.72273e-09
3.42763e-07 2.66042e-07 -8.97122e-08
3.49429e-05 3.44769e-05 -3.74565e-05
3.44729e-07 1.87705e-07 7.41487e-08
3.49206e-07 1.51089e-07 1.35947e-07
3.55471e-07 1.79402e-07 1.15105e-07
3.29436e-05 2.72188e-05 3.82418e-05
-8.66089e-08 4.67438e-08 -1.55492e-08
-7.58484e-08 4.00128e-08 -4.31413e-08
-1.75315e-07 1.01628e-07 -7.64428e-09
-3.0868e-07 2.56768e-07 -6.59125e-08
3.7305e-05 3.13636e-05 4.33619e-05
7.50291e-06 3.64252e-06 -9.83701e-07
2.94874e-06 4.63442e-06 -2.23275e-06
3.21547e-06 4.52866e-06 -2.01379e-06
0.00020986 8.05683e-06 -2.65568e-05
0.000196897 9.0779e-06 -2.53519e-05
4.23284e-06 3.62157e-06 -1.416e-06