# vtk DataFile Version 2.0
S, Created by Mohamad Ibrahim Cheikh
ASCII
DATASET UNSTRUCTURED_GRID
POINTS 10490 double
-223.577 20.3392 -34.7912
-223.729 23.2859 -32.7654
-130.49 -29.3022 69.2869
-194.383 -37.8827 -41.023
-207.469 29.5097 40.0417
-235.876 27.3997 13.4741
-191.274 -39.7116 -41.0828
14.3896 -3.11363 87.8007
-191.061 39.2282 -41.6642
-193.401 36.9379 -42.4291
-251.146 3.21307 -3.38121
-251.007 5.46298 -0.715109
-204.326 29.3025 -42.1191
18.5839 -1.48272 87.7469
-201.228 30.3647 -43.1793
-151.298 68.7461 -14.6764
-148.497 69.9572 -12.2565
241.381 21.7608 -11.7085
240.378 24.3448 -8.78214
39.3207 72.9632 -47.2343
43.1641 72.2478 -47.9181
45.4006 -3.18507 -86.4957
49.2641 -1.50046 -86.2822
-145.563 -45.4926 -55.5006
-142.058 -46.9169 -55.4266
-191.797 -27.3629 49.9153
-189.472 -30.0413 49.4602
-64.3401 -67.8341 51.3392
-66.4825 -66.0147 53.3378
-121.226 -41.6775 -64.8674
-205.486 44.6093 24.175
-208.429 41.8737 25.9206
-64.8746 -22.5643 81.973
-61.245 -23.9155 81.9318
44.2959 4.21189 86.5219
-201.398 -44.9172 27.5773
-51.3645 82.7745 -23.8615
-48.1536 82.468 -25.6737
-109.541 -78.4117 -11.249
-105.514 -79.2425 -10.0785
-195.491 42.643 35.3086
-200.947 -43.0028 30.8396
-54.4247 -15.3002 84.5415
3.50393 8.30791 87.5984
226.254 36.0726 -13.2455
223.493 37.2792 -15.458
-146.984 22.4306 -67.7928
-143.824 23.6998 -68.1895
-167.022 -43.0225 -49.7765
-163.504 -43.4773 -50.801
-215.266 -7.15679 -44.938
-215.166 -3.16085 -45.4525
-105.625 -17.5954 77.9005
-104.088 -21.1326 77.272
-247.96 -12.5218 7.72452
-247.222 -12.2237 10.5723
-226.223 -18.8453 33.5147
-129.023 -40.8334 -63.5495
238.447 4.0757 -27.6837
236.191 2.11813 -30.1595
30.6575 -3.70378 -87.2652
26.6876 -1.96133 -87.4812
-224.96 -22.539 32.2511
-47.661 -75.8713 41.3453
-235.553 -26.7704 15.3058
-110.108 51.2643 -60.2632
-237.92 -25.2887 13.1992
-16.8463 -1.42114 -87.7909
-20.0181 -3.97451 -87.6307
25.2978 7.59831 -87.2233
27.3334 3.7646 -87.3977
25.4288 1.75629 -87.5314
45.9589 -6.30234 -86.2884
-242.159 -16.9744 16.6266
249.587 -5.36885 -9.40941
249.11 -2.30247 -11.8809
-169.137 48.1708 43.8309
30.4673 -13.4654 -86.3078
-165.51 47.9434 45.7343
-244.371 -14.4427 14.9733
243.986 6.9281 20.1944
244.544 3.56452 20.2422
-218.53 -34.2526 26.9085
-142.145 -69.4108 21.2696
-139.63 -70.7397 18.7866
-221.095 -32.0561 27.0484
-157.97 -59.7995 33.3589
-205.035 32.466 39.2816
-154.319 -61.3633 32.6029
21.3239 7.42186 87.3684
-119.045 18.5478 75.2657
-116.378 20.6385 75.2321
25.5777 -59.0303 64.6477
29.112 -57.6582 65.6945
-134.489 55.0847 -49.9525
-136.763 52.5888 -51.8503
-177.087 57.9223 23.4435
-176.68 59.3987 19.8497
-69.5818 65.5134 -53.4717
-62.7284 16.9515 -83.5159
-66.3473 16.9246 -83.1783
-66.0598 67.087 -52.0486
124.45 57.7503 50.1272
121.016 58.3569 50.4529
-132.441 -69.8469 26.7939
-132.815 -68.0009 30.9878
-188.853 35.126 46.2994
-185.106 37.2982 46.4528
-232.726 13.175 -30.6503
-59.2509 75.5131 40.1492
-60.5615 77.0237 36.9095
-231.927 16.7993 -29.6015
-175.271 -46.9575 -42.1659
-178.784 -11.2258 60.8657
-181.796 -8.37404 60.2294
-195.813 53.7573 12.6432
-198.365 52.0708 14.669
-195.137 -6.40255 -55.1458
-196.109 -2.36232 -55.0446
-155.751 25.0793 64.382
-159.448 22.4964 64.2283
-196.21 -54.5515 -7.39877
-193.182 -56.048 -5.79643
-90.8167 75.322 -32.5703
-86.817 75.7259 -32.9667
-39.2319 -78.9669 -36.3289
-42.7328 -77.6538 -38.6047
-35.6904 20.6862 -84.6175
-119.248 -59.0759 -50.1304
-116.053 -58.388 -51.8257
-103.565 -58.9099 54.4102
-107.459 -57.2176 55.2846
-176.049 46.9161 -41.8135
26.8998 14.0739 -86.3559
23.7628 15.825 -86.1652
-175.595 44.5886 -44.507
-89.4423 -39.5846 72.0946
-93.3111 -38.4434 72.1118
-1.70786 -75.0116 -46.0097
2.63118 -75.2482 -45.6165
-158.021 -33.1939 -59.875
-154.736 -36.6306 -58.9137
25.1728 73.1128 48.1761
27.7132 71.1242 50.905
-166.551 38.8256 53.296
-168.966 36.4539 54.0352
126.638 60.2655 46.3533
124.982 62.2381 44.2492
55.9089 20.2666 83.3701
-158.139 12.6575 67.2461
-155.543 9.85989 68.4453
-43.432 73.9456 -45.2228
70.8773 53.1109 -65.6368
-40.6916 75.5983 -42.7337
222.064 -27.8282 -30.5326
225.276 -26.0123 -29.2253
-16.2108 80.1721 -35.8365
-19.0859 78.9515 -38.2892
247.477 -7.06407 13.9944
245.671 -9.07238 16.5073
-182.888 19.8612 57.048
-181.347 22.7048 56.5874
-55.0911 69.0208 51.074
-52.8247 70.8895 48.7549
-221.671 26.388 -32.1201
245.288 -12.7014 14.713
-123.334 -44.6578 -62.3487
-128.466 -46.899 -59.3629
-126.78 -44.2464 -61.7932
-219.064 -11.0518 41.7919
-206.362 49.8824 -6.47992
-208.047 48.5203 -9.51717
-173.561 -35.1376 53.116
-196.132 -34.8661 -42.6464
-56.8147 10.6827 85.057
-99.1019 80.7357 4.83042
-149.825 -21.465 67.3423
-153.216 -21.7096 66.3221
-105.284 79.8863 2.25353
-102.91 80.1173 5.35022
-208.259 -1.8243 -49.3015
-211.701 -0.424263 -47.5059
6.78819 76.9605 -42.608
8.2358 75.179 -45.6487
-14.2109 86.2043 -16.9732
-18.1702 85.5307 -19.6997
11.9919 74.5835 -46.5155
-209.315 34.9103 -34.0773
-209.418 37.4874 -31.135
-243.668 12.2925 -17.9916
-205.986 40.0982 -30.6816
-237.951 16.7318 23.0642
-240.123 13.5375 22.3945
-198.666 34.6926 41.3319
-44.0861 -51.8565 -69.4042
-47.9316 -52.1739 -68.8521
-63.8945 78.6671 -32.491
-60.7284 79.641 -30.8187
-198.897 37.6904 38.4721
-195.374 39.988 38.3625
193.193 51.8482 -22.051
191.207 51.613 -24.5773
-17.2216 73.2011 -48.4694
-16.0853 71.4248 -51.0961
-160.706 -8.67259 67.133
-158.25 -5.14028 68.2022
-159.177 -12.183 67.0336
-155.583 -13.9453 67.7197
-181.216 -39.3671 -46.623
-187.067 -34.8934 -47.351
234.201 -8.19803 31.0077
231.367 -8.83951 33.3482
-185.723 -37.8047 -45.7364
-220.423 -36.3319 -21.8075
-223.2 -33.1947 -23.2995
-73.8696 69.7835 46.9701
-199.241 43.3774 -31.6587
-202.405 40.5224 -32.9582
-78.6689 72.0793 42.3188
-74.7864 71.9531 43.382
-199.862 -47.1004 -25.2006
-196.405 -49.1626 -24.5822
-156.237 -38.5607 57.1712
-155.213 -34.6023 59.9766
-162.894 56.2709 -36.4551
-159.742 58.0984 -35.2768
245.94 -16.0777 8.9524
246.756 -13.0533 10.9096
-202.188 25.1261 -45.9102
246.469 -16.6405 5.4594
-222.675 -40.7293 -3.81036
-219.564 -42.6764 -4.53582
-225.909 36.4565 -12.9115
-224.083 36.2164 -16.8754
-228.9 -34.8682 10.6502
-231.376 -33.5772 7.89184
-225.472 -37.7617 9.69452
119.552 74.8281 19.8718
-172.163 -51.1025 -38.7774
115.357 75.6437 19.8197
47.9198 12.1804 -85.5248
51.5063 10.7797 -85.4576
-180.22 -22.1722 57.2359
-179.93 52.3272 -32.2833
-165.447 0.849707 66.2723
-168.57 2.82798 65.2459
-181.018 -17.4141 58.5576
36.4519 -59.7528 63.3319
37.7863 -57.2058 65.5491
-159.984 -59.9392 -31.9012
-182.766 -21.7974 -56.3849
-184.31 -18.0292 -57.0962
-11.9289 15.158 -86.5841
-188.59 -54.9977 19.1019
-192.466 -53.121 19.6704
-145.927 9.34344 -71.0605
-143.729 12.1501 -71.1842
-174.349 52.4329 35.6821
-173.417 50.7276 38.5853
-187.168 39.7281 -43.3212
-231.494 33.4993 -7.79801
-229.089 35.9731 -4.95868
-234.9 30.8737 -5.94323
241.404 7.72111 23.4445
239.892 10.8371 24.1019
240.609 13.4021 21.8297
-138.878 -61.8298 -39.4936
-138.123 -60.1621 -42.2943
-141.495 -58.2492 -43.5877
-200.351 -41.1637 -33.6917
-218.714 20.1178 -38.5057
-52.6488 9.10557 85.5671
-56.6794 -81.1828 27.5688
-60.1939 -81.4606 25.7794
-152.596 56.1721 41.6874
-153.346 58.0678 38.6416
-189.412 -9.89533 -57.041
-186.064 -8.87811 -58.5378
64.9141 -8.70304 84.5716
67.8938 -7.06412 84.4378
-196.835 -37.2187 40.1912
-200.415 -34.6091 40.3568
-180.668 -48.2453 -37.685
-174.532 -52.0916 -36.0705
-215.618 -38.5089 23.8563
-218.655 -36.4147 23.7608
-178.254 -50.9816 -35.422
-121.48 47.9853 -60.288
-71.002 59.8227 59.5654
26.871 -68.2984 54.6894
24.8072 -66.5859 56.8769
-87.1855 -8.57305 -82.0967
-84.0064 -6.26315 -82.709
-29.9876 86.0345 -15.2302
-33.8436 85.5801 -16.7275
-74.8303 60.3026 58.4982
-117.546 49.0368 -60.3968
67.0823 -10.9597 -84.1008
63.3328 -11.5671 -84.3749
-122.272 44.7784 -62.5181
-75.8666 64.3167 -53.8765
-79.4141 64.4529 -53.082
-210.937 -46.4387 -11.8318
-207.911 -47.2772 -14.7162
-70.3852 -66.9047 51.5871
-82.1827 61.9538 -55.4872
181.002 57.5734 -20.4513
187.791 54.7435 -20.7266
-57.9919 -57.7656 -63.2091
-60.2517 -59.9475 -60.8756
185.028 56.5068 -18.9618
-52.2047 4.98837 85.9387
170.803 -60.9399 -21.4146
166.658 -61.8363 -22.7992
-242.161 -11.2303 20.9366
-241.443 -7.71417 23.3973
231.622 25.8611 -22.5152
229.371 25.1806 -25.8602
225.984 27.6878 -26.9257
-235.385 -18.9688 -24.5116
-234.849 -16.6286 -26.7384
-226.064 27.1667 -27.3711
-222.948 28.4634 -29.1266
-220.765 31.3785 -28.1505
-250.634 -7.2938 -0.17862
-176.037 45.3122 43.5524
58.6248 51.3015 -68.4936
59.72 48.4738 -70.4105
128.096 68.3813 32.5438
131.59 68.3041 30.9607
-176.917 47.6238 40.5457
-181.02 46.7573 39.318
18.7048 -86.4178 15.2683
142.028 69.3641 -21.5164
141.086 68.397 -25.0768
23.2385 -86.1703 15.8921
181.098 -44.0244 42.3151
25.6367 -86.6619 12.3796
-189.024 21.6495 -53.8596
-189.445 17.9033 -55.0411
-212.327 -45.0143 14.0796
-120.845 -47.0008 -61.2129
-24.3212 -37.2704 79.2622
52.3004 18.5578 -84.0519
55.8151 16.7698 -84.1508
-25.2923 -41.1197 77.2972
-119.138 -6.52352 -77.2248
-115.758 -7.73879 -77.7404
-200.046 16.4796 50.7243
-215.148 -43.264 14.3205
-153.411 33.0731 61.3902
-156.833 31.381 61.2197
-157.698 28.2336 62.4675
-79.9679 -83.4309 0.602839
-62.757 73.2046 -43.6223
-62.1465 71.1486 -47.0003
-79.8045 -83.3553 -4.0212
-209.642 -18.6808 44.8804
-59.4442 71.7771 46.4696
-205.671 -19.6728 46.6702
-191.283 -46.3882 33.3542
-190.153 -45.0075 35.9369
-195.128 47.3286 29.0255
-192.216 -42.6379 37.4509
-97.6551 19.8856 78.6193
-94.0515 21.0394 78.8566
-195.846 -41.8717 35.9843
-247.68 -8.81126 12.4835
188.065 -42.0216 40.596
184.93 -44.2656 39.9695
-127.095 75.5242 7.90261
-123.442 76.0641 9.62632
48.8398 1.71484 86.3077
130.444 15.5974 -73.6035
-179.679 46.535 -40.3221
198.595 13.1812 52.3605
200.49 9.43481 52.2853
113.329 74.8988 23.7007
109.585 75.3554 24.3993
149.55 63.7459 -30.6964
145.719 65.356 -29.5449
-166.876 -45.6688 -47.4234
129.839 19.3611 -72.8369
-209.798 43.7093 -21.0883
-206.937 46.1328 -19.3113
126.463 20.2135 -73.3307
-61.8835 -0.267653 85.294
-59.1606 2.64629 85.4897
[...]
POINT_DATA 10490
VECTORS F double
1.38259e-08 3.12936e-08 7.417e-09
1.27408e-07 9.02475e-08 -4.2372e-08
1.45184e-07 7.21513e-07 3.38611e-07
5.75158e-08 -7.26433e-09 -2.6658e-08
2.89012e-07 2.58419e-07 -7.11289e-09
1.81702e-07 1.94364e-07 -5.81024e-09
8.3931e-08 2.59671e-08 -7.29421e-08
-1.94436e-06 2.39421e-06 1.23917e-07
9.5541e-07 7.23335e-07 1.44646e-07
1.0389e-06 6.27584e-07 -3.34087e-08
1.2184e-08 7.34761e-08 -4.09708e-08
1.07107e-08 5.76602e-08 -1.97808e-08
1.0221e-07 3.55359e-07 1.86521e-07
-2.39658e-06 3.99742e-06 1.29689e-07
1.43317e-07 1.20701e-07 3.1091e-09
3.40651e-06 6.84562e-07 -1.0929e-06
4.38442e-06 7.96802e-07 -1.95565e-06
-1.07931e-08 2.06821e-08 1.1201e-08
-1.27447e-08 2.00886e-08 1.29814e-08
-2.7051e-05 5.45625e-06 5.67138e-06
-2.61722e-05 4.58685e-06 4.02946e-06
-3.19571e-06 1.85112e-06 -2.73528e-07
-2.90426e-06 1.34865e-06 -2.26472e-07
3.11894e-08 2.18754e-07 -1.89322e-07
5.795e-08 2.4593e-07 -2.26356e-07
1.62942e-08 1.68078e-07 9.98025e-08
1.0246e-09 1.4344e-07 8.76033e-08
-4.55614e-08 1.9331e-07 2.48429e-07
-1.91068e-07 1.49833e-07 1.56286e-07
2.53522e-07 2.12182e-07 -1.94333e-07
5.68436e-07 2.58354e-07 1.14809e-07
3.78464e-07 2.82987e-07 -8.457e-08
1.47774e-07 3.03327e-06 8.49268e-07
-2.72001e-07 1.65128e-06 4.57106e-07
-2.07258e-06 3.14894e-06 -2.33832e-08
1.47246e-08 2.8695e-08 5.99039e-08
8.88466e-05 1.6164e-05 3.26563e-05
9.64539e-05 1.89518e-05 3.8727e-05
3.95936e-08 4.69675e-10 -5.04807e-08
3.41714e-08 -2.70363e-09 -2.25396e-08
6.47221e-07 3.53021e-07 1.23656e-08
2.73979e-08 2.92616e-08 6.26594e-08
3.05619e-07 2.87826e-06 5.44989e-07
-1.5738e-06 3.77592e-06 -3.50405e-07
-2.15678e-08 1.31443e-08 -9.30489e-09
-3.661e-08 3.33476e-08 1.562e-08
1.30078e-06 8.84964e-07 -5.24771e-08
1.13672e-06 1.64768e-06 2.79134e-07
-5.15108e-08 1.03435e-07 -6.82384e-08
-4.47542e-08 1.1644e-07 -8.20177e-08
5.34037e-08 1.46332e-07 -5.46248e-08
7.01938e-08 1.5534e-07 -5.14841e-08
9.88046e-07 2.38399e-06 7.02487e-07
1.0654e-06 2.30705e-06 8.06641e-07
-3.99964e-08 9.77035e-08 1.19323e-09
-2.80821e-08 7.37686e-08 4.88872e-09
5.9464e-08 9.72236e-08 1.0381e-07
1.79374e-07 3.60902e-08 -6.77757e-08
-1.75604e-08 1.1759e-08 -1.67854e-08
-1.65988e-08 7.13084e-09 -1.54136e-08
-2.54996e-06 3.0008e-06 -2.37041e-07
-2.33084e-06 3.90565e-06 -1.74621e-07
1.3567e-08 8.70079e-08 7.23912e-08
-3.89707e-08 5.64772e-08 9.81389e-08
-1.10063e-08 1.24834e-08 1.09687e-09
1.21603e-05 6.1798e-06 2.53677e-06
-2.08584e-08 3.69138e-08 2.46914e-08
-4.04456e-07 4.89787e-06 -6.97845e-08
1.81495e-07 3.85882e-06 -1.80095e-07
-8.40962e-07 6.73238e-06 5.56617e-07
-3.3359e-06 5.27666e-06 9.95577e-08
-2.27572e-06 4.07594e-06 8.40584e-10
-1.28905e-06 2.13575e-06 -2.40049e-07
5.66018e-09 4.49518e-08 5.59845e-08
2.51391e-09 1.22753e-08 1.1645e-09
-3.19034e-09 4.3583e-09 -9.03425e-09
3.70076e-07 3.87075e-07 -2.50565e-07
9.55838e-07 1.60672e-06 -2.09362e-07
5.22156e-07 5.64271e-07 -3.60178e-07
1.13544e-09 2.89075e-08 3.01509e-08
-9.70747e-09 1.03849e-08 1.07971e-08
-2.98002e-09 1.0663e-08 2.53014e-09
1.99831e-08 1.56607e-08 3.98041e-08
2.69338e-08 6.31638e-09 4.26513e-08
1.39154e-08 3.53519e-09 2.59756e-08
1.64917e-08 1.82187e-08 3.80963e-08
3.9411e-08 3.4095e-08 8.3968e-08
2.41131e-07 2.9865e-07 -9.27411e-08
4.09508e-08 2.9171e-08 7.86344e-08
-3.45759e-07 4.87092e-06 -4.03448e-07
2.25502e-06 2.81447e-06 -2.56903e-07
2.09026e-06 3.28418e-06 -5.05077e-07
-2.43939e-08 2.00897e-07 1.84621e-07
-6.83883e-08 2.9579e-07 2.63316e-07
4.90384e-06 2.99756e-06 1.68911e-06
5.93753e-06 2.51077e-06 6.29122e-07
4.47264e-07 3.43217e-07 -4.3436e-07
1.30624e-06 5.854e-07 -3.283e-07
2.61177e-05 1.90448e-05 1.91725e-05
2.09176e-06 1.91118e-06 1.95563e-07
1.84505e-06 6.04986e-07 -5.70842e-08
2.51296e-05 2.13864e-05 2.36607e-05
-1.09113e-06 3.55747e-07 -7.81961e-08
-1.15655e-06 4.10811e-07 -1.3554e-07
3.95807e-09 1.3366e-08 3.72379e-08
-2.33918e-11 1.85387e-08 4.0669e-08
1.02559e-06 5.47496e-07 9.6796e-08
1.0151e-06 6.75296e-07 -4.69871e-08
6.07293e-08 8.47162e-08 -2.00384e-08
4.57289e-05 2.18781e-05 -3.28862e-05
4.60954e-05 2.16732e-05 -3.59682e-05
3.51996e-08 8.73674e-08 1.58174e-08
4.43194e-08 -2.2467e-08 2.46542e-09
4.50617e-07 3.85476e-07 2.33147e-07
2.26035e-07 1.44446e-07 1.03612e-07
6.75293e-07 3.66977e-07 -2.79889e-07
8.10529e-07 3.8665e-07 -3.05976e-08
-5.66302e-09 1.1797e-07 -1.1243e-08
1.2589e-07 1.63161e-07 -6.19128e-08
4.05801e-07 2.4118e-06 -8.19301e-07
1.27643e-06 9.67332e-07 4.9138e-08
8.0334e-09 -1.95931e-09 -1.16347e-08
-1.2804e-09 -6.68278e-10 1.16896e-08
2.65764e-05 7.35945e-06 7.94678e-06
2.78929e-05 9.10512e-06 1.19216e-05
-4.40847e-08 5.05828e-08 -1.04121e-07
-2.99698e-08 6.53788e-08 -1.27448e-07
1.17479e-06 1.0075e-05 2.40233e-06
1.28287e-07 1.57459e-07 -2.22918e-07
1.25269e-07 1.83191e-07 -2.4073e-07
4.20066e-08 1.51669e-07 1.74e-07
8.89952e-08 2.43329e-07 2.73015e-07
2.42691e-06 7.45422e-07 -4.14618e-07
-5.35797e-07 6.2407e-06 9.96648e-07
-2.32811e-06 3.53692e-06 5.70979e-07
7.39528e-07 1.02493e-07 -2.54532e-07
2.54355e-07 5.92621e-07 3.6402e-07
3.12703e-07 9.08489e-07 5.33861e-07
-6.35282e-08 8.29155e-08 -1.34893e-07
-6.23073e-08 5.99169e-08 -9.92783e-08
1.25125e-07 2.37539e-07 -1.72118e-07
2.73533e-08 1.50146e-07 -1.02151e-07
-4.00235e-05 1.73293e-05 -2.37386e-05
-3.67923e-05 1.8156e-05 -2.2915e-05
2.68846e-06 1.19622e-06 1.57158e-07
2.33848e-06 1.37472e-06 -3.21797e-08
-5.98229e-07 1.5045e-07 4.48728e-09
-1.46819e-06 2.10203e-08 4.78138e-07
-1.10558e-06 9.99001e-07 -1.52077e-07
9.68097e-07 1.04335e-06 8.23411e-08
2.60357e-07 2.78686e-07 3.22897e-08
4.5658e-05 3.36795e-05 4.97017e-05
-5.70326e-06 2.87492e-06 1.57228e-06
5.30895e-05 3.10786e-05 4.87904e-05
-2.28369e-09 7.37526e-09 -8.75584e-09
-1.48034e-09 5.77263e-09 -6.53535e-09
0.000113273 4.01601e-05 8.35707e-05
0.000100572 4.44002e-05 8.54144e-05
-7.97229e-10 -5.03089e-10 1.47275e-09
-1.33157e-09 6.2981e-10 2.77379e-09
3.86043e-07 5.56953e-07 -4.23832e-08
3.31734e-07 6.12551e-07 -1.1562e-07
3.96451e-05 3.04028e-05 -3.58504e-05
4.20794e-05 2.98006e-05 -3.77481e-05
1.99721e-07 7.8512e-08 -1.04248e-07
-4.02594e-09 -1.67167e-09 6.77403e-09
2.44541e-07 1.93869e-07 -1.98084e-07
1.20923e-08 1.29987e-07 -1.05898e-07
2.27101e-07 3.71523e-08 -8.36471e-08
8.57879e-10 1.3415e-07 3.60263e-08
5.55663e-07 2.96485e-07 1.15835e-07
5.9817e-07 3.22283e-07 4.21522e-08
9.76397e-08 1.39609e-07 1.31415e-07
9.05928e-08 4.37132e-09 -5.4583e-08
2.2485e-06 3.8715e-06 -3.02362e-07
3.04319e-05 4.69567e-06 -2.04368e-06
-3.6751e-08 2.77445e-07 7.84223e-08
-7.02226e-08 3.7757e-07 1.0373e-07
2.67207e-05 4.46235e-06 -5.34673e-06
2.86501e-05 4.8731e-06 -5.50372e-06
4.82416e-08 9.38367e-08 -2.84211e-08
6.71908e-08 1.87725e-07 -3.83349e-08
5.51655e-06 3.40129e-05 6.15432e-05
-2.14037e-05 2.92055e-05 4.76258e-05
0.000222782 1.07658e-05 3.18385e-05
0.000200789 1.30525e-05 3.39943e-05
-2.24104e-05 2.28955e-05 3.60035e-05
3.01504e-07 2.24563e-07 3.32072e-09
8.67226e-07 4.71476e-07 -1.46473e-07
1.04775e-07 1.79599e-07 -5.10215e-08
7.81956e-07 5.96511e-07 1.36857e-07
6.93485e-08 2.04798e-07 -6.09763e-08
8.19976e-08 1.72466e-07 3.38485e-09
4.22406e-07 -1.79021e-07 3.98838e-07
4.35241e-07 3.22142e-07 -2.74541e-07
4.00277e-07 4.08007e-07 -3.4329e-07
5.80611e-05 1.90495e-05 3.21432e-05
6.23285e-05 1.7866e-05 3.1132e-05
7.00199e-07 -3.60998e-08 4.78557e-07
5.19311e-07 2.94243e-07 1.70869e-08
-7.3892e-08 3.56703e-08 4.61383e-09
-1.02875e-07 5.64936e-08 2.06521e-08
2.75538e-05 4.65682e-05 6.91311e-05
5.47938e-06 4.20175e-05 5.85229e-05
7.49466e-07 4.27313e-07 2.74854e-07
9.1935e-07 3.54298e-07 2.87867e-07
1.99415e-07 1.6097e-07 8.72287e-08
3.17359e-07 3.76788e-07 1.66856e-07
1.01602e-07 9.8404e-08 -1.31438e-07
1.15181e-07 7.67346e-08 -1.12257e-07
1.23208e-09 9.99466e-09 1.50278e-09
8.15422e-10 9.90492e-09 1.93232e-09
8.7714e-08 6.30477e-08 -9.57219e-08
3.51719e-09 2.73239e-09 -8.90584e-09
-1.1724e-09 4.86401e-09 -5.55519e-09
3.16397e-05 1.4227e-05 -1.50449e-05
7.90054e-07 6.29023e-07 2.53124e-07
8.20381e-07 5.93074e-07 1.12366e-07
2.71491e-05 1.00089e-05 -1.08686e-05
3.05983e-05 1.40835e-05 -1.69006e-05
4.08846e-09 1.3782e-08 -2.97283e-08
3.99324e-10 7.40418e-09 -1.51976e-08
6.9852e-08 2.68209e-07 2.04271e-07
2.0475e-07 2.49104e-07 2.08587e-07
1.57685e-06 1.10748e-06 8.46838e-07
1.9632e-06 1.00104e-06 5.60247e-07
1.75787e-09 6.65905e-09 6.04725e-09
4.93127e-10 7.12839e-09 7.15841e-09
3.29259e-07 2.33399e-07 -4.97931e-08
4.90276e-10 2.80195e-09 5.82223e-09
-2.80307e-08 1.97037e-08 -1.00701e-08
-2.12751e-08 9.81509e-09 3.37366e-08
3.10442e-07 2.37082e-07 4.41451e-09
4.01363e-07 3.11996e-07 1.70804e-08
1.24757e-08 -1.68729e-09 2.73025e-08
-2.17457e-09 1.1541e-08 4.12989e-08
1.89715e-09 -5.40547e-09 -1.56561e-08
-2.10538e-06 2.17703e-07 7.30951e-07
5.15565e-08 -1.98657e-08 -1.84492e-09
-2.18374e-06 2.729e-07 5.14519e-07
5.64189e-07 1.39602e-06 2.37522e-07
4.91516e-07 9.34613e-07 1.54163e-07
1.13726e-07 3.19923e-07 1.67773e-07
1.57061e-06 5.29309e-07 -2.13778e-07
4.73028e-07 2.10819e-07 1.41874e-07
4.84955e-07 2.95573e-07 1.40585e-07
1.57151e-07 3.46487e-07 1.62515e-07
-3.87361e-08 1.96133e-07 1.87778e-07
-1.79704e-08 2.0773e-07 1.82558e-07
4.2166e-08 1.13953e-08 -4.72998e-08
6.97071e-08 6.43545e-08 -5.25409e-08
2.23845e-07 1.23086e-07 -1.27332e-07
6.79858e-07 8.99021e-06 1.56241e-06
7.2167e-09 9.65344e-09 3.65168e-08
2.19558e-09 8.38476e-09 2.52723e-08
1.09071e-06 7.59684e-07 -1.74335e-07
8.18527e-07 1.08545e-06 -1.70695e-08
1.78372e-06 1.12937e-06 -5.92494e-07
1.29461e-06 8.89178e-07 -4.56636e-07
1.0748e-06 1.03575e-06 3.81329e-07
3.55805e-07 3.00119e-07 -3.89369e-09
3.28918e-07 2.66777e-07 7.49316e-08
2.80771e-07 2.21452e-07 -2.08236e-07
-1.14952e-08 1.89451e-08 8.25221e-09
-7.9766e-09 2.366e-08 -9.17809e-10
-8.34703e-09 2.32245e-08 -2.99441e-09
7.33634e-08 2.88603e-08 -7.67667e-08
1.42104e-08 5.52763e-08 -8.431e-08
7.42503e-08 1.12601e-07 -1.79986e-07
-1.08301e-08 6.52543e-08 -7.1842e-08
1.31317e-07 2.03451e-07 1.49765e-08
3.35436e-06 5.97565e-06 -3.83212e-07
2.55353e-08 1.99783e-08 6.52581e-08
1.85797e-08 1.94303e-08 6.67102e-08
1.10782e-06 2.16794e-07 2.0435e-07
3.41633e-06 1.12955e-06 -3.75632e-08
1.4167e-07 2.48977e-07 -1.00787e-07
1.90189e-07 1.46579e-07 -9.6242e-08
1.71192e-07 5.93482e-07 4.49852e-08
-9.648e-09 1.03184e-06 8.72725e-08
2.12047e-08 7.25955e-08 7.9941e-08
1.58013e-08 7.38529e-08 7.2942e-08
2.1295e-08 2.32893e-08 -4.23154e-08
1.87577e-08 4.05489e-09 -1.69682e-08
1.57925e-08 3.36602e-09 2.29085e-08
1.78932e-08 1.22322e-08 3.89068e-08
1.50996e-08 1.75685e-08 -3.45889e-08
7.56699e-06 4.05365e-06 1.35968e-06
2.62573e-05 1.91689e-05 -1.54198e-05
-4.13759e-09 2.2321e-07 2.79002e-07
-1.16853e-07 1.81178e-07 2.18345e-07
8.32008e-07 1.6456e-06 -2.80021e-07
7.26685e-07 1.95873e-06 -2.38689e-07
0.000161462 1.24651e-05 3.14909e-05
0.000146361 1.44956e-05 3.79058e-05
2.42766e-05 1.67406e-05 -1.34549e-05
7.57859e-06 5.4466e-06 2.61634e-06
-8.59238e-07 6.88607e-07 -1.73646e-07
-8.88832e-07 5.84795e-07 -1.61852e-07
4.9659e-06 4.01813e-06 1.6889e-06
2.40951e-05 1.73901e-05 1.66059e-05
2.1837e-05 1.39784e-05 1.29729e-05
1.30314e-09 -6.07834e-09 2.10124e-08
-2.08451e-08 1.5339e-08 -1.32237e-08
-1.38024e-07 6.61588e-08 6.2747e-08
2.05017e-05 1.40178e-05 1.19338e-05
-1.94517e-07 5.97876e-08 -4.24551e-08
-1.53006e-07 7.38693e-08 2.53844e-08
-4.57593e-07 2.84446e-07 -2.0855e-07
-2.81201e-07 1.61829e-07 -1.25286e-07
-1.901e-07 7.44735e-08 -5.16682e-09
1.1676e-06 5.46508e-06 -2.3039e-07
9.08216e-09 5.0793e-09 -5.58335e-09
9.47182e-09 6.87629e-09 -1.01727e-08
-1.3641e-08 3.26593e-08 -1.79845e-09
7.60775e-09 2.29986e-08 1.7194e-08
-4.92413e-09 1.34054e-08 9.19496e-09
-1.42037e-08 2.67933e-08 1.0666e-08
-1.75661e-08 2.33872e-08 5.99876e-09
-3.16945e-08 5.54575e-08 -5.65331e-09
4.41741e-08 3.15824e-09 -4.94647e-08
2.7277e-07 3.19573e-07 4.13681e-08
2.76643e-07 1.56503e-07 -1.06311e-07
2.03462e-07 1.91923e-07 1.85797e-08
-2.27504e-08 9.60467e-08 -1.33143e-08
9.7901e-07 4.66233e-07 -6.03885e-10
-3.89488e-06 3.4351e-06 2.16474e-06
-2.74351e-06 3.5158e-06 2.13555e-06
-1.09428e-06 5.60114e-08 4.09636e-07
-9.4589e-07 -6.03059e-08 6.25235e-07
1.53239e-06 7.3446e-07 -4.40571e-08
1.39904e-06 2.63539e-07 4.7519e-07
-1.46968e-08 9.75787e-09 5.74315e-08
-4.99787e-07 -1.25766e-08 -4.44437e-07
-8.60058e-07 6.84627e-08 -4.05677e-07
-4.4503e-09 8.16378e-10 5.22107e-09
-1.16667e-08 6.72978e-09 1.31147e-08
-1.08431e-08 -6.23106e-10 -1.60885e-09
1.72549e-07 5.05817e-07 1.2918e-07
1.34366e-07 4.92223e-07 1.03486e-07
-2.68429e-08 2.21038e-08 2.11057e-08
3.47915e-07 2.43736e-07 -2.71237e-07
-5.06058e-08 2.74333e-07 1.27093e-07
-1.49227e-06 2.01843e-06 3.31967e-07
-1.4172e-06 1.9349e-06 2.70509e-07
-1.49138e-07 2.50841e-07 1.27464e-07
-8.54618e-08 1.06837e-06 -7.41075e-08
-2.26225e-08 1.13109e-06 -1.08471e-07
3.19886e-07 5.92485e-07 -3.80377e-08
-2.58453e-08 2.67303e-08 3.32182e-08
1.61884e-06 2.64698e-06 -9.30743e-07
1.84303e-06 1.89404e-06 -3.92828e-07
-1.15507e-07 2.09756e-06 -9.83739e-07
-3.25346e-08 3.74811e-09 -9.65399e-09
3.58052e-05 2.39402e-05 3.38684e-05
2.83819e-05 2.32851e-05 3.0654e-05
7.69873e-09 -3.10522e-10 -1.2265e-08
4.21454e-09 7.8231e-08 3.49725e-08
4.16436e-05 2.4195e-05 -3.08495e-05
1.63952e-08 1.34101e-07 6.53734e-08
2.49113e-08 2.79368e-08 5.6345e-08
4.13224e-08 2.37377e-08 5.64985e-08
3.67744e-07 3.7538e-07 -3.09418e-07
2.7022e-08 2.40707e-08 4.43845e-08
2.87777e-06 6.11105e-06 -1.10807e-06
3.79816e-06 4.125e-06 -5.45961e-07
1.36359e-08 6.674e-08 8.67457e-08
-1.25951e-08 7.26247e-08 2.0666e-08
-2.58304e-08 1.38459e-08 2.8982e-08
-1.36296e-08 4.9062e-10 8.26379e-09
7.22355e-06 1.53207e-06 -4.18445e-07
9.1435e-06 2.26632e-06 -3.55263e-06
-2.52449e-06 2.11106e-06 1.32955e-07
-1.6088e-07 3.65099e-07 4.24622e-08
2.41815e-06 9.599e-07 -2.1145e-07
-6.08772e-08 7.98235e-08 8.17312e-09
-2.56301e-08 9.34554e-08 -4.83188e-09
-1.92391e-06 1.19279e-07 7.49334e-07
-2.19123e-06 5.11019e-07 -3.73366e-07
-9.03506e-07 2.21712e-07 -7.84905e-08
-1.05982e-06 1.34292e-07 -3.4289e-07
-7.34714e-08 9.88827e-08 -6.35719e-08
-4.19909e-07 3.54477e-07 2.58307e-09
4.95161e-07 1.66057e-07 -2.58921e-07
4.95665e-07 1.84673e-07 -2.09117e-07
-4.40807e-07 3.64785e-07 7.4814e-09
6.96363e-07 4.98598e-06 7.74997e-08
1.7869e-06 4.26185e-06 1.94681e-08
1.20016e-06 3.78396e-06 1.77585e-07
1.34113e-08 1.54419e-08 5.54827e-08
7.56214e-06 1.62449e-06 2.66551e-07
8.41245e-06 1.79997e-06 -1.16068e-06
-1.48801e-06 6.57484e-06 -1.14756e-06
1.28691e-08 -2.10533e-09 1.53122e-08
1.99803e-06 4.30838e-06 6.50964e-08
3.67661e-06 8.149e-06 4.30774e-06
4.83295e-06 5.97939e-06 2.60614e-06
9.11075e-06 7.91156e-06 3.72834e-06
1.10699e-07 4.154e-07 7.07442e-08
7.79194e-08 5.38137e-07 5.14434e-08
-3.1926e-07 1.56832e-06 1.78715e-07
-6.80086e-08 8.73322e-07 1.03658e-07
6.78661e-07 2.95971e-07 1.48711e-07
3.5504e-07 5.29661e-07 1.07148e-07
1.92948e-06 6.51194e-07 -3.21966e-08
2.55128e-06 1.06058e-06 3.77694e-07
-3.73428e-08 1.06094e-09 2.92498e-08
-3.19413e-08 -2.40232e-09 1.52451e-08
7.49863e-08 1.86345e-08 -8.13514e-08
5.90079e-08 8.49311e-09 -4.94644e-08
-2.16755e-08 7.25778e-08 1.09358e-07
1.51382e-08 5.93639e-08 1.16225e-07
-1.54891e-08 6.13764e-08 1.02193e-07
2.6632e-07 1.01635e-07 2.03196e-07
3.98478e-07 2.43068e-07 -6.39931e-08
5.62622e-07 2.64978e-07 1.41329e-07
2.34246e-08 7.50475e-08 -8.1859e-08
1.26832e-08 7.63525e-08 -7.79641e-08
-4.1452e-08 5.83041e-07 -3.37591e-07
3.37661e-08 3.39906e-07 -2.02022e-07
-4.64488e-07 3.25364e-06 -5.88308e-07
-1.08035e-06 2.38274e-06 -4.37572e-07
-1.43782e-08 6.29871e-08 -5.57922e-08
2.09082e-07 -3.11612e-09 -4.15945e-08
-2.11019e-08 5.36928e-09 1.21855e-08
1.32943e-08 3.31337e-08 -5.11781e-08
-1.50536e-06 3.98431e-06 -1.72827e-07
-8.05836e-08 3.72643e-07 -2.76695e-07
-1.42814e-07 3.24109e-07 -2.28532e-07
2.03302e-05 2.92056e-05 2.87832e-05
1.6721e-06 8.6253e-07 1.25127e-06
8.20869e-05 7.1943e-06 6.38617e-06
9.21983e-05 7.5159e-06 -5.25625e-06
7.51491e-05 7.69531e-06 -1.38351e-05
8.90046e-05 7.32605e-06 -1.98116e-06
1.86016e-06 8.44072e-07 1.19101e-06
1.95808e-05 2.42182e-05 2.30744e-05
1.84073e-05 2.41508e-05 2.11753e-05
4.52459e-08 2.9055e-08 -8.08742e-08
-2.53219e-08 5.72056e-09 -2.87157e-08
-1.25851e-08 4.7173e-09 -5.14541e-08
5.08593e-08 1.83069e-08 -6.71292e-08
2.29151e-08 8.50256e-09 -3.29532e-08
1.39717e-07 2.45015e-07 8.65979e-08
1.03069e-07 3.63972e-07 2.17892e-07
-6.57957e-07 8.39133e-08 2.48497e-07
-2.1156e-05 9.26148e-06 -9.17359e-06
-2.22562e-05 9.34683e-06 -9.83594e-06
-8.79794e-07 7.92892e-07 -2.20091e-07
2.12967e-07 2.04591e-07 -1.66069e-07
3.61734e-07 3.85087e-07 1.08942e-07
1.88694e-07 5.18199e-07 -2.74651e-07
1.77942e-07 2.17791e-07 -1.4621e-07
1.25293e-07 4.63667e-09 7.47806e-08
1.02668e-07 5.45611e-08 1.3153e-07
6.46334e-08 3.27629e-08 8.49141e-08
1.1847e-06 1.59229e-06 -1.08631e-07
1.31271e-06 1.80007e-06 -1.11453e-07
-4.25431e-05 1.78326e-05 -2.69484e-05
-9.40344e-08 1.99568e-07 4.32728e-09
3.38709e-08 6.7949e-09 2.25918e-08
-2.94385e-08 6.87204e-08 1.24702e-07
6.28302e-07 1.91593e-06 -2.03286e-07
6.57194e-07 1.37271e-06 -1.69203e-07
-5.32784e-08 8.97485e-08 -1.74616e-09
1.17057e-07 1.86071e-07 4.01741e-09
-1.05436e-07 1.59389e-07 -1.17186e-08
-1.60742e-05 1.18809e-06 -5.13054e-07
2.16431e-09 1.04932e-07 -5.08043e-08
-4.16023e-09 8.94289e-08 -4.45574e-08
-9.67352e-06 -4.2752e-08 -1.68023e-06
7.93626e-07 7.31061e-07 -2.54019e-07
-1.33242e-05 2.77393e-06 2.14946e-06
-1.1174e-08 1.01888e-07 1.78483e-09
1.63283e-06 6.07003e-07 1.29112e-07
1.8077e-06 4.80584e-07 4.61684e-07
2.44569e-09 6.71128e-08 -3.48756e-08
-9.22995e-09 7.91957e-08 2.38694e-08
1.13481e-07 2.02925e-07 -1.21282e-07
1.77662e-08 -1.04558e-08 -1.75887e-08
1.75461e-08 4.25798e-10 -3.65259e-08
4.45018e-07 4.62138e-07 -1.22759e-07
5.52412e-07 3.8906e-07 6.73234e-08
2.6649e-06 2.09749e-06 8.31554e-07
3.18395e-05 2.59611e-05 3.32282e-05
2.46137e-05 2.57519e-05 3.07824e-05
1.72202e-08 7.88009e-10 2.57818e-09
-1.54199e-08 2.16678e-10 -1.56157e-08
2.46386e-05 2.5214e-05 2.81496e-05
3.57848e-07 9.64989e-08 1.53599e-07
1.82516e-07 1.43596e-07 1.4607e-08
-2.16758e-08 5.55075e-08 -1.55886e-09
-1.04679e-07 2.04675e-07 1.8385e-07
-9.37066e-08 2.24836e-07 1.84708e-07
-4.61152e-07 3.49282e-06 2.96142e-07
-1.02593e-07 4.45153e-08 4.12352e-08
-2.47283e-08 1.22552e-07 9.65625e-08
-3.33658e-05 3.19759e-05 -5.27771e-05
-2.59608e-05 2.97787e-05 -4.49535e-05
-6.16531e-07 3.48318e-06 3.09243e-07
1.07986e-06 1.20669e-06 -2.34356e-07
-2.0655e-07 2.96997e-06 3.94002e-07
-2.60769e-09 -3.3496e-09 -2.29626e-08
3.23484e-07 7.75509e-07 -1.97948e-07
5.99805e-06 3.50993e-05 -3.43523e-05
4.02819e-07 5.40142e-07 -6.83969e-08
9.15385e-07 6.15808e-07 6.22231e-07
5.93647e-08 1.04511e-07 -5.27683e-08
-3.25415e-08 4.69777e-08 2.98511e-08
8.67505e-09 2.10393e-09 -3.44591e-09
-4.17572e-09 3.16833e-09 -2.0483e-08
-1.90589e-05 2.02371e-05 -1.99067e-05
-3.01256e-08 6.21103e-08 9.66592e-08
1.27576e-06 4.83831e-07 -1.63604e-07
-5.33903e-09 -2.61237e-09 2.05843e-09
6.8597e-08 1.32708e-07 1.45225e-07
2.20919e-08 9.5178e-10 2.26355e-08
1.44554e-05 2.44933e-05 -1.80442e-05
2.63145e-07 8.99041e-08 -1.05641e-07
1.40842e-05 2.50612e-05 -2.06277e-05
0.000322838 2.7466e-06 -5.20929e-05
0.000300681 6.07033e-06 -5.73451e-05
1.573e-08 9.86722e-08 9.45696e-08
0.000168589 3.69028e-05 -0.000104565
1.37474e-08 1.11264e-07 9.08946e-08
-4.96399e-08 6.44957e-08 1.22354e-08
-5.77854e-08 4.69057e-08 -5.54898e-09
4.32859e-08 1.5336e-07 1.29441e-07
1.04313e-06 1.07851e-06 -3.42069e-07
1.44993e-08 5.06253e-10 -9.7818e-09
3.44383e-07 2.66859e-07 -8.93588e-08
3.48009e-05 3.41534e-05 -3.71333e-05
3.46238e-07 1.88451e-07 7.46012e-08
3.50896e-07 1.51852e-07 1.36562e-07
3.56904e-07 1.8008e-07 1.1563e-07
3.26066e-05 2.66255e-05 3.74017e-05
-8.8002e-08 4.75336e-08 -1.55417e-08
-7.70675e-08 4.06862e-08 -4.35962e-08
-1.78544e-07 1.03536e-07 -7.81256e-09
-3.14047e-07 2.61203e-07 -6.70389e-08
3.68818e-05 3.06802e-05 4.24281e-05
7.49436e-06 3.68333e-06 -1.01342e-06
2.99308e-06 4.60807e-06 -2.20766e-06
3.27075e-06 4.5275e-06 -2.00254e-06
0.000207077 7.85781e-06 -2.60026e-05
0.000194216 8.83512e-06 -2.45487e-05
4.2512e-06 3.66617e-06 -1.44025e-06