# vtk DataFile Version 2.0
S, Created by Mohamad Ibrahim Cheikh
ASCII
DATASET UNSTRUCTURED_GRID
POINTS 10490 double
-223.577 20.3393 -34.7912
-223.729 23.286 -32.7654
-130.49 -29.3015 69.2873
-194.383 -37.8827 -41.0231
-207.469 29.51 40.0417
-235.875 27.3999 13.4741
-191.274 -39.7116 -41.0829
14.3876 -3.11124 87.8008
-191.06 39.2289 -41.664
-193.4 36.9385 -42.4292
-251.146 3.21315 -3.38125
-251.007 5.46304 -0.715129
-204.325 29.3029 -42.1189
18.5815 -1.47873 87.747
-201.228 30.3648 -43.1793
-151.295 68.7468 -14.6774
-148.493 69.958 -12.2584
241.381 21.7608 -11.7085
240.378 24.3448 -8.78213
39.2936 72.9689 -47.2283
43.1379 72.2525 -47.9139
45.3974 -3.18322 -86.4959
49.2612 -1.49911 -86.2824
-145.562 -45.4924 -55.5007
-142.058 -46.9166 -55.4268
-191.797 -27.3627 49.9154
-189.472 -30.0412 49.4603
-64.3402 -67.8339 51.3395
-66.4827 -66.0146 53.338
-121.226 -41.6773 -64.8676
-205.486 44.6096 24.1751
-208.429 41.874 25.9205
-64.8745 -22.5613 81.9739
-61.2452 -23.9138 81.9323
44.2938 4.21504 86.5219
-201.398 -44.9172 27.5774
-51.2765 82.7905 -23.8292
-48.0581 82.4867 -25.6355
-109.541 -78.4117 -11.2491
-105.514 -79.2425 -10.0785
-195.49 42.6434 35.3086
-200.947 -43.0028 30.8396
-54.4244 -15.2973 84.542
3.50235 8.31169 87.598
226.254 36.0726 -13.2455
223.493 37.2793 -15.458
-146.982 22.4315 -67.7928
-143.823 23.7015 -68.1892
-167.022 -43.0224 -49.7766
-163.504 -43.4771 -50.8011
-215.266 -7.15665 -44.9381
-215.166 -3.16069 -45.4525
-105.624 -17.593 77.9012
-104.087 -21.1303 77.2728
-247.96 -12.5217 7.72453
-247.222 -12.2236 10.5723
-226.223 -18.8452 33.5148
-129.023 -40.8334 -63.5496
238.447 4.07572 -27.6837
236.191 2.11814 -30.1595
30.6549 -3.70078 -87.2654
26.6853 -1.95743 -87.4813
-224.96 -22.539 32.2512
-47.661 -75.8713 41.3454
-235.553 -26.7704 15.3058
-110.096 51.2704 -60.2606
-237.92 -25.2887 13.1992
-16.8467 -1.41626 -87.7909
-20.0179 -3.97067 -87.6309
25.297 7.60502 -87.2228
27.3301 3.76986 -87.3976
25.4265 1.76036 -87.5314
45.9577 -6.30021 -86.2886
-242.159 -16.9743 16.6266
249.587 -5.36884 -9.40941
249.11 -2.30246 -11.8809
-169.137 48.1712 43.8307
30.4682 -13.4638 -86.308
-165.509 47.944 45.7339
-244.371 -14.4427 14.9733
243.986 6.92811 20.1944
244.544 3.56453 20.2422
-218.53 -34.2526 26.9086
-142.145 -69.4108 21.2696
-139.63 -70.7397 18.7866
-221.095 -32.0561 27.0485
-157.97 -59.7995 33.359
-205.035 32.4663 39.2815
-154.319 -61.3633 32.603
21.3236 7.42672 87.368
-119.043 18.5506 75.2654
-116.376 20.6417 75.2316
25.5777 -59.0301 64.6479
29.1119 -57.6579 65.6948
-134.484 55.0877 -49.9508
-136.758 52.5913 -51.8496
-177.087 57.9226 23.443
-176.679 59.3992 19.8494
-69.5559 65.5323 -53.4527
-62.7263 16.9534 -83.5157
-66.3455 16.9252 -83.1783
-66.0349 67.1082 -52.0251
124.449 57.7506 50.1271
121.015 58.3573 50.4527
-132.441 -69.8469 26.7939
-132.815 -68.0008 30.9878
-188.852 35.1265 46.2995
-185.105 37.2988 46.4528
-232.726 13.1751 -30.6503
-59.2054 75.5348 40.1166
-60.5156 77.0452 36.8738
-231.927 16.7994 -29.6015
-175.27 -46.9575 -42.1659
-178.784 -11.2254 60.8659
-181.796 -8.3739 60.2295
-195.812 53.7577 12.6429
-198.364 52.0712 14.6689
-195.137 -6.40244 -55.1458
-196.109 -2.36215 -55.0447
-155.751 25.0817 64.3812
-159.447 22.4974 64.2283
-196.21 -54.5515 -7.39878
-193.182 -56.048 -5.79642
-90.7903 75.3294 -32.5624
-86.7892 75.735 -32.9549
-39.232 -78.9669 -36.329
-42.7328 -77.6537 -38.6048
-35.6893 20.6962 -84.6152
-119.248 -59.0758 -50.1306
-116.053 -58.3878 -51.826
-103.565 -58.9098 54.4104
-107.459 -57.2173 55.2849
-176.047 46.9168 -41.8139
26.8993 14.0801 -86.3549
23.7605 15.8286 -86.1646
-175.595 44.5887 -44.5073
-89.442 -39.584 72.0949
-93.3108 -38.4425 72.1123
-1.70793 -75.0116 -46.0099
2.63112 -75.2481 -45.6166
-158.02 -33.1937 -59.8751
-154.736 -36.6304 -58.9138
25.1333 73.1297 48.1529
27.6768 71.1419 50.8826
-166.548 38.8268 53.2961
-168.963 36.4552 54.0352
126.638 60.2656 46.3533
124.981 62.2381 44.2496
55.9078 20.2676 83.3699
-158.138 12.6585 67.2462
-155.543 9.86017 68.4453
-43.3866 73.9789 -45.1737
70.8716 53.1138 -65.6352
-40.6386 75.629 -42.6856
222.064 -27.8282 -30.5326
225.276 -26.0123 -29.2253
-16.0979 80.2116 -35.7542
-18.9856 78.9951 -38.2052
247.477 -7.06407 13.9944
245.671 -9.07238 16.5073
-182.888 19.8617 57.048
-181.347 22.7054 56.5873
-55.0516 69.051 51.0383
-52.7827 70.9191 48.7174
-221.67 26.3881 -32.1202
245.288 -12.7014 14.713
-123.334 -44.6576 -62.3489
-128.466 -46.8988 -59.363
-126.78 -44.2464 -61.7933
-219.064 -11.0517 41.7919
-206.362 49.8827 -6.47981
-208.046 48.5206 -9.51713
-173.561 -35.1375 53.1162
-196.132 -34.8661 -42.6465
-56.8125 10.6866 85.0567
-99.0717 80.7404 4.82838
-149.825 -21.4647 67.3424
-153.216 -21.7093 66.3222
-105.257 79.8907 2.24827
-102.881 80.1221 5.3448
-208.259 -1.82421 -49.3015
-211.701 -0.424075 -47.5059
6.79538 76.9937 -42.5478
8.21616 75.2076 -45.6021
-13.9913 86.2148 -16.9421
-17.9721 85.5434 -19.6667
11.9715 74.6064 -46.4795
-209.315 34.9105 -34.0773
-209.417 37.4879 -31.1351
-243.668 12.2927 -17.9916
-205.986 40.0988 -30.6814
-237.951 16.732 23.0641
-240.123 13.5376 22.3945
-198.665 34.6925 41.3323
-44.0856 -51.8562 -69.4045
-47.9312 -52.1734 -68.8525
-63.8369 78.686 -32.4592
-60.6666 79.6587 -30.7879
-198.896 37.6904 38.4726
-195.373 39.9883 38.3625
193.192 51.8483 -22.051
191.206 51.6131 -24.5773
-17.1936 73.2472 -48.4009
-16.0795 71.4665 -51.0381
-160.706 -8.67216 67.1333
-158.249 -5.13992 68.2025
-159.177 -12.1829 67.0337
-155.583 -13.945 67.7199
-181.216 -39.367 -46.6232
-187.067 -34.8933 -47.3511
234.201 -8.19802 31.0077
231.367 -8.8395 33.3482
-185.723 -37.8046 -45.7365
-220.423 -36.3319 -21.8075
-223.2 -33.1947 -23.2995
-73.8381 69.7977 46.9552
-199.24 43.3781 -31.6584
-202.404 40.523 -32.958
-78.6419 72.0893 42.3079
-74.756 71.9671 43.3651
-199.862 -47.1004 -25.2006
-196.405 -49.1626 -24.5822
-156.237 -38.5604 57.1714
-155.213 -34.6021 59.9768
-162.892 56.272 -36.4543
-159.74 58.0994 -35.2763
245.94 -16.0777 8.95241
246.756 -13.0533 10.9096
-202.187 25.1264 -45.9102
246.469 -16.6405 5.45941
-222.675 -40.7293 -3.81037
-219.564 -42.6764 -4.53578
-225.909 36.4567 -12.9114
-224.082 36.2167 -16.8754
-228.9 -34.8682 10.6502
-231.376 -33.5771 7.89188
-225.472 -37.7617 9.6945
119.55 74.8283 19.8725
-172.163 -51.1025 -38.7774
115.355 75.644 19.8202
47.9204 12.1818 -85.5246
51.5068 10.7807 -85.4574
-180.22 -22.1719 57.2361
-179.928 52.3278 -32.2835
-165.447 0.849918 66.2725
-168.57 2.82828 65.246
-181.018 -17.4137 58.5577
36.4519 -59.7526 63.3321
37.7863 -57.2056 65.5493
-159.984 -59.9392 -31.9013
-182.766 -21.7973 -56.385
-184.31 -18.0291 -57.0963
-11.9282 15.167 -86.5826
-188.59 -54.9977 19.1019
-192.466 -53.121 19.6704
-145.926 9.3442 -71.0606
-143.729 12.1512 -71.1842
-174.347 52.434 35.6815
-173.415 50.7285 38.5848
-187.167 39.7292 -43.3208
-231.494 33.4996 -7.79801
-229.088 35.9734 -4.9586
-234.9 30.8739 -5.94344
241.404 7.72113 23.4446
239.892 10.8371 24.1019
240.609 13.4021 21.8297
-138.878 -61.8298 -39.4937
-138.123 -60.162 -42.2944
-141.495 -58.2491 -43.5878
-200.351 -41.1637 -33.6918
-218.714 20.118 -38.5057
-52.6455 9.11154 85.5667
-56.6794 -81.1828 27.5689
-60.1939 -81.4605 25.7794
-152.595 56.1723 41.6876
-153.343 58.0689 38.6416
-189.411 -9.89508 -57.0411
-186.063 -8.87797 -58.5379
64.9143 -8.70245 84.5716
67.8938 -7.06309 84.4379
-196.835 -37.2187 40.1913
-200.415 -34.609 40.3569
-180.668 -48.2453 -37.685
-174.532 -52.0916 -36.0706
-215.618 -38.5089 23.8563
-218.655 -36.4147 23.7608
-178.254 -50.9815 -35.422
-121.473 47.9894 -60.2867
-70.9758 59.8418 59.5501
26.871 -68.2981 54.6897
24.8071 -66.5857 56.8771
-87.1847 -8.57141 -82.097
-84.0057 -6.26119 -82.7092
-29.8281 86.0468 -15.1993
-33.6989 85.5944 -16.6902
-74.8061 60.3193 58.4848
-117.538 49.0422 -60.3942
67.0815 -10.959 -84.101
63.3319 -11.5666 -84.3751
-122.267 44.7824 -62.5164
-75.8427 64.334 -53.8601
-79.3924 64.4668 -53.0692
-210.937 -46.4387 -11.8317
-207.911 -47.2772 -14.7163
-70.3853 -66.9047 51.5872
-82.1624 61.9678 -55.4753
181.002 57.5735 -20.4513
187.791 54.7436 -20.7265
-57.9924 -57.7653 -63.2094
-60.252 -59.9473 -60.8757
185.027 56.5069 -18.9618
-52.2036 4.99382 85.9384
170.803 -60.9399 -21.4146
166.658 -61.8363 -22.7992
-242.161 -11.2303 20.9366
-241.443 -7.71414 23.3973
231.622 25.8611 -22.5152
229.371 25.1806 -25.8602
225.984 27.6878 -26.9257
-235.385 -18.9688 -24.5116
-234.849 -16.6286 -26.7385
-226.064 27.1671 -27.3711
-222.947 28.4636 -29.1267
-220.765 31.3787 -28.1505
-250.634 -7.29371 -0.178633
-176.036 45.3127 43.5524
58.6209 51.305 -68.4915
59.7172 48.4774 -70.4084
128.095 68.3813 32.5442
131.589 68.304 30.9613
-176.915 47.6246 40.5457
-181.019 46.7576 39.3185
18.7048 -86.4178 15.2684
142.028 69.3641 -21.5169
141.085 68.3971 -25.0772
23.2385 -86.1703 15.8921
181.098 -44.0244 42.3151
25.6367 -86.6619 12.3796
-189.024 21.65 -53.8594
-189.445 17.9038 -55.041
-212.327 -45.0143 14.0796
-120.845 -47.0005 -61.2131
-24.3213 -37.2701 79.2623
52.2989 18.5598 -84.0516
55.8136 16.7717 -84.1506
-25.2925 -41.1194 77.2973
-119.138 -6.52245 -77.2249
-115.758 -7.73766 -77.7405
-200.046 16.4802 50.7243
-215.148 -43.264 14.3205
-153.41 33.0757 61.3893
-156.832 31.3829 61.2193
-157.698 28.2357 62.4665
-79.968 -83.4309 0.602829
-62.7214 73.2283 -43.5888
-62.1183 71.1717 -46.9699
-79.8044 -83.3553 -4.02122
-209.642 -18.6807 44.8804
-59.4027 71.8011 46.439
-205.671 -19.6727 46.6703
-191.283 -46.3882 33.3543
-190.153 -45.0075 35.9369
-195.127 47.329 29.0252
-192.216 -42.6378 37.451
-97.6522 19.8917 78.6182
-94.0477 21.0435 78.8561
-195.846 -41.8716 35.9844
-247.68 -8.81119 12.4835
188.065 -42.0216 40.596
184.93 -44.2656 39.9695
-127.088 75.5257 7.9022
-123.433 76.0664 9.62278
48.8373 1.71695 86.3079
130.444 15.5978 -73.6035
-179.677 46.5359 -40.3223
198.595 13.1813 52.3605
200.49 9.4349 52.2852
113.327 74.899 23.7015
109.583 75.3559 24.3989
149.549 63.7461 -30.6965
145.718 65.3561 -29.5452
-166.876 -45.6687 -47.4235
129.838 19.3614 -72.8369
-209.797 43.7095 -21.0886
-206.937 46.133 -19.3115
126.463 20.2139 -73.3307
-61.8828 -0.262673 85.2941
-59.1588 2.65055 85.4897
[...]
POINT_DATA 10490
VECTORS F double
1.39877e-08 3.1474e-08 7.39651e-09
1.2774e-07 9.05085e-08 -4.24643e-08
1.46318e-07 7.25227e-07 3.40434e-07
5.77685e-08 -7.27237e-09 -2.67976e-08
2.90049e-07 2.58951e-07 -6.84925e-09
1.82283e-07 1.94942e-07 -5.74374e-09
8.42759e-08 2.60695e-08 -7.32375e-08
-1.94633e-06 2.39375e-06 1.2387e-07
9.55149e-07 7.22948e-07 1.44442e-07
1.03826e-06 6.27638e-07 -3.29931e-08
1.22199e-08 7.37139e-08 -4.10498e-08
1.07448e-08 5.78412e-08 -1.97765e-08
1.02715e-07 3.5579e-07 1.86524e-07
-2.39626e-06 3.98779e-06 1.29329e-07
1.43746e-07 1.21494e-07 3.42241e-09
3.39991e-06 6.87407e-07 -1.07104e-06
4.3724e-06 7.98084e-07 -1.92997e-06
-1.09707e-08 2.10354e-08 1.1407e-08
-1.29623e-08 2.04367e-08 1.32152e-08
-2.71844e-05 5.88591e-06 6.32489e-06
-2.63965e-05 4.81377e-06 4.34945e-06
-3.1828e-06 1.84961e-06 -2.72589e-07
-2.89337e-06 1.35179e-06 -2.25731e-07
3.13647e-08 2.1941e-07 -1.89915e-07
5.82062e-08 2.46752e-07 -2.27131e-07
1.65606e-08 1.68914e-07 1.00386e-07
1.22797e-09 1.44159e-07 8.81346e-08
-4.58087e-08 1.94773e-07 2.50321e-07
-1.92302e-07 1.50983e-07 1.5752e-07
2.53989e-07 2.12634e-07 -1.94729e-07
5.69223e-07 2.58664e-07 1.15053e-07
3.79355e-07 2.83299e-07 -8.42e-08
1.49161e-07 3.03724e-06 8.50375e-07
-2.69401e-07 1.66058e-06 4.60023e-07
-2.06781e-06 3.13368e-06 -2.30587e-08
1.48819e-08 2.88237e-08 6.02531e-08
8.72412e-05 1.57738e-05 3.1819e-05
9.45917e-05 1.84503e-05 3.76563e-05
3.98318e-08 4.61155e-10 -5.07012e-08
3.43925e-08 -2.72779e-09 -2.26309e-08
6.48383e-07 3.53525e-07 1.25396e-08
2.76304e-08 2.93927e-08 6.30275e-08
3.00987e-07 2.88241e-06 5.45275e-07
-1.58226e-06 3.77459e-06 -3.50405e-07
-2.19396e-08 1.34191e-08 -9.33348e-09
-3.72315e-08 3.39559e-08 1.5987e-08
1.29711e-06 8.82972e-07 -5.21513e-08
1.13589e-06 1.63453e-06 2.74816e-07
-5.1591e-08 1.03797e-07 -6.85184e-08
-4.4816e-08 1.16828e-07 -8.23255e-08
5.3636e-08 1.46723e-07 -5.48216e-08
7.04406e-08 1.55758e-07 -5.16556e-08
9.89715e-07 2.38541e-06 7.03006e-07
1.07116e-06 2.3101e-06 8.08345e-07
-4.00874e-08 9.79673e-08 1.25383e-09
-2.81474e-08 7.39983e-08 4.96747e-09
5.98093e-08 9.75968e-08 1.04305e-07
1.80004e-07 3.60359e-08 -6.78971e-08
-1.77458e-08 1.19403e-08 -1.69558e-08
-1.67768e-08 7.26196e-09 -1.55757e-08
-2.53386e-06 2.99001e-06 -2.35778e-07
-2.31832e-06 3.88564e-06 -1.73524e-07
1.37519e-08 8.73346e-08 7.27784e-08
-3.91871e-08 5.69749e-08 9.90217e-08
-1.10091e-08 1.25399e-08 1.18852e-09
1.19626e-05 6.13009e-06 2.53973e-06
-2.08971e-08 3.70407e-08 2.48473e-08
-3.92097e-07 4.85911e-06 -6.91788e-08
1.83493e-07 3.83592e-06 -1.78944e-07
-8.42898e-07 6.68098e-06 5.52589e-07
-3.30504e-06 5.24489e-06 9.97012e-08
-2.25753e-06 4.05764e-06 1.31609e-09
-1.28733e-06 2.13333e-06 -2.39704e-07
5.7085e-09 4.51199e-08 5.62415e-08
2.55937e-09 1.24637e-08 1.202e-09
-3.21307e-09 4.46643e-09 -9.10992e-09
3.73756e-07 3.8645e-07 -2.48142e-07
9.55138e-07 1.60522e-06 -2.09129e-07
5.25887e-07 5.64136e-07 -3.58392e-07
1.16141e-09 2.90206e-08 3.03135e-08
-9.87513e-09 1.05621e-08 1.09835e-08
-3.04539e-09 1.08418e-08 2.59587e-09
2.01411e-08 1.57126e-08 4.00262e-08
2.71721e-08 6.37998e-09 4.30514e-08
1.40588e-08 3.57474e-09 2.62536e-08
1.66319e-08 1.82907e-08 3.83218e-08
3.97435e-08 3.43241e-08 8.45718e-08
2.42372e-07 2.99078e-07 -9.23037e-08
4.13067e-08 2.93786e-08 7.92309e-08
-3.77438e-07 4.84861e-06 -4.00878e-07
2.25423e-06 2.80914e-06 -2.55856e-07
2.09081e-06 3.27631e-06 -5.02969e-07
-2.45554e-08 2.02356e-07 1.85961e-07
-6.88683e-08 2.97769e-07 2.65076e-07
4.86391e-06 2.96487e-06 1.66651e-06
5.86524e-06 2.49164e-06 6.33266e-07
4.48527e-07 3.42705e-07 -4.31939e-07
1.30386e-06 5.83788e-07 -3.261e-07
2.56433e-05 1.87582e-05 1.89119e-05
2.05448e-06 1.9321e-06 2.03289e-07
1.81068e-06 6.31313e-07 -4.83632e-08
2.46798e-05 2.10452e-05 2.33112e-05
-1.08395e-06 3.56435e-07 -8.11708e-08
-1.14689e-06 4.0948e-07 -1.36836e-07
4.06857e-09 1.34797e-08 3.76025e-08
8.66912e-11 1.86908e-08 4.10625e-08
1.02715e-06 5.48057e-07 9.71429e-08
1.01742e-06 6.74298e-07 -4.50641e-08
6.09347e-08 8.50351e-08 -2.00933e-08
4.52077e-05 2.14898e-05 -3.2294e-05
4.55563e-05 2.12816e-05 -3.53127e-05
3.53694e-08 8.76922e-08 1.58391e-08
4.45377e-08 -2.25331e-08 2.42831e-09
4.52887e-07 3.87272e-07 2.34291e-07
2.27343e-07 1.45138e-07 1.04191e-07
6.75251e-07 3.67016e-07 -2.80149e-07
8.10792e-07 3.86769e-07 -3.06e-08
-5.60334e-09 1.18284e-07 -1.13051e-08
1.26168e-07 1.63538e-07 -6.20507e-08
4.06818e-07 2.40812e-06 -8.17666e-07
1.27476e-06 9.69308e-07 4.79208e-08
8.09024e-09 -1.98348e-09 -1.16419e-08
-1.24913e-09 -6.89214e-10 1.17605e-08
2.63067e-05 7.28472e-06 7.8722e-06
2.76036e-05 9.01712e-06 1.18223e-05
-4.43041e-08 5.08415e-08 -1.04654e-07
-3.01068e-08 6.57089e-08 -1.28094e-07
1.11905e-06 9.92527e-06 2.36985e-06
1.28883e-07 1.58066e-07 -2.23806e-07
1.25882e-07 1.83815e-07 -2.416e-07
4.24923e-08 1.52773e-07 1.75308e-07
8.97675e-08 2.44957e-07 2.74881e-07
2.41629e-06 7.42812e-07 -4.12044e-07
-5.36526e-07 6.19726e-06 9.89998e-07
-2.30218e-06 3.53381e-06 5.7144e-07
7.42119e-07 1.0556e-07 -2.52711e-07
2.56778e-07 5.95542e-07 3.65985e-07
3.15235e-07 9.11831e-07 5.36029e-07
-6.38579e-08 8.32749e-08 -1.35475e-07
-6.26389e-08 6.02249e-08 -9.97874e-08
1.25638e-07 2.38173e-07 -1.72634e-07
2.75762e-08 1.50559e-07 -1.02479e-07
-3.89559e-05 1.66375e-05 -2.27778e-05
-3.5958e-05 1.73862e-05 -2.19138e-05
2.6865e-06 1.19545e-06 1.56929e-07
2.33867e-06 1.37266e-06 -3.07634e-08
-5.93917e-07 1.51065e-07 2.25174e-09
-1.45886e-06 2.08685e-08 4.75121e-07
-1.11562e-06 1.01202e-06 -1.5443e-07
9.7115e-07 1.04365e-06 8.31456e-08
2.63122e-07 2.79114e-07 3.29969e-08
4.52442e-05 3.28511e-05 4.84781e-05
-5.73625e-06 2.92705e-06 1.61033e-06
5.28555e-05 3.01706e-05 4.72941e-05
-2.28936e-09 7.45108e-09 -8.82862e-09
-1.4765e-09 5.84011e-09 -6.59021e-09
0.000112421 3.88701e-05 8.10039e-05
0.000100059 4.29534e-05 8.2725e-05
-8.18082e-10 -4.83499e-10 1.52711e-09
-1.36281e-09 6.59922e-10 2.84476e-09
3.87643e-07 5.58542e-07 -4.23139e-08
3.33963e-07 6.13845e-07 -1.15271e-07
3.9286e-05 3.00493e-05 -3.54664e-05
4.1881e-05 2.93755e-05 -3.72072e-05
2.00116e-07 7.87653e-08 -1.04373e-07
-4.0829e-09 -1.6729e-09 6.89107e-09
2.45179e-07 1.94232e-07 -1.98497e-07
1.22625e-08 1.30239e-07 -1.06142e-07
2.27768e-07 3.71337e-08 -8.38016e-08
1.07861e-09 1.34701e-07 3.63131e-08
5.55512e-07 2.96446e-07 1.16136e-07
5.9837e-07 3.22405e-07 4.22519e-08
9.83988e-08 1.40367e-07 1.3222e-07
9.09559e-08 4.40643e-09 -5.48155e-08
2.26405e-06 3.85804e-06 -2.99582e-07
2.99902e-05 4.62689e-06 -2.03172e-06
-3.65205e-08 2.78871e-07 7.89392e-08
-7.00781e-08 3.79231e-07 1.04312e-07
2.63325e-05 4.39327e-06 -5.17638e-06
2.82479e-05 4.79694e-06 -5.33835e-06
4.84519e-08 9.41746e-08 -2.8542e-08
6.74319e-08 1.88224e-07 -3.84698e-08
9.03525e-06 3.28374e-05 5.95986e-05
-1.7833e-05 2.81502e-05 4.60323e-05
0.000216981 1.03535e-05 3.07456e-05
0.000195836 1.24983e-05 3.24506e-05
-1.83141e-05 2.29912e-05 3.63267e-05
3.02158e-07 2.24903e-07 3.17771e-09
8.67495e-07 4.71556e-07 -1.46589e-07
1.05061e-07 1.80097e-07 -5.11525e-08
7.82223e-07 5.96487e-07 1.36618e-07
6.96695e-08 2.05455e-07 -6.10494e-08
8.23391e-08 1.73031e-07 3.49063e-09
4.2361e-07 -1.78631e-07 3.99213e-07
4.36101e-07 3.22229e-07 -2.74671e-07
4.01231e-07 4.08149e-07 -3.43475e-07
5.71644e-05 1.86659e-05 3.14846e-05
6.13679e-05 1.75005e-05 3.04746e-05
7.01609e-07 -3.56601e-08 4.79012e-07
5.20515e-07 2.94797e-07 1.7258e-08
-7.54319e-08 3.64846e-08 4.87703e-09
-1.04864e-07 5.76296e-08 2.11433e-08
2.82876e-05 4.56453e-05 6.78467e-05
6.15496e-06 4.12067e-05 5.74624e-05
7.53e-07 4.28559e-07 2.76047e-07
9.23286e-07 3.55336e-07 2.89059e-07
2.01232e-07 1.61537e-07 8.78593e-08
3.19521e-07 3.78069e-07 1.67726e-07
1.02038e-07 9.87319e-08 -1.31922e-07
1.15641e-07 7.69869e-08 -1.12665e-07
1.22359e-09 1.01726e-08 1.55627e-09
8.0007e-10 1.00951e-08 1.99604e-09
8.81029e-08 6.3257e-08 -9.60865e-08
3.53708e-09 2.7377e-09 -8.93738e-09
-1.16102e-09 4.88304e-09 -5.59584e-09
3.11897e-05 1.40866e-05 -1.49344e-05
7.90295e-07 6.28746e-07 2.52573e-07
8.20534e-07 5.92939e-07 1.12098e-07
2.68163e-05 9.92887e-06 -1.08152e-05
3.02079e-05 1.39484e-05 -1.67726e-05
4.12257e-09 1.38318e-08 -2.98559e-08
4.19994e-10 7.42552e-09 -1.52614e-08
7.05198e-08 2.69694e-07 2.05494e-07
2.06172e-07 2.50469e-07 2.09824e-07
1.57364e-06 1.10453e-06 8.44108e-07
1.95916e-06 9.97243e-07 5.56283e-07
1.78062e-09 6.75863e-09 6.14672e-09
4.96323e-10 7.236e-09 7.27859e-09
3.29876e-07 2.33939e-07 -4.98293e-08
5.04486e-10 2.85454e-09 5.91529e-09
-2.80906e-08 1.97449e-08 -1.00614e-08
-2.13149e-08 9.82992e-09 3.38432e-08
3.11105e-07 2.37625e-07 4.53186e-09
4.02058e-07 3.12574e-07 1.71936e-08
1.2524e-08 -1.67083e-09 2.74851e-08
-2.16846e-09 1.15845e-08 4.15028e-08
1.9076e-09 -5.409e-09 -1.56389e-08
-2.06064e-06 2.1004e-07 7.26861e-07
5.1803e-08 -1.99417e-08 -1.87862e-09
-2.13162e-06 2.63583e-07 5.12984e-07
5.64519e-07 1.4013e-06 2.38321e-07
4.92214e-07 9.3995e-07 1.54898e-07
1.14564e-07 3.21356e-07 1.68649e-07
1.56571e-06 5.28765e-07 -2.11298e-07
4.75486e-07 2.11727e-07 1.42613e-07
4.87482e-07 2.96683e-07 1.41335e-07
1.58336e-07 3.48044e-07 1.63424e-07
-3.88928e-08 1.97566e-07 1.8914e-07
-1.79447e-08 2.09171e-07 1.83812e-07
4.24104e-08 1.1425e-08 -4.75059e-08
7.0024e-08 6.45692e-08 -5.27497e-08
2.24516e-07 1.23418e-07 -1.27702e-07
6.43122e-07 8.88914e-06 1.54629e-06
7.30865e-09 9.69927e-09 3.67608e-08
2.25778e-09 8.42526e-09 2.54564e-08
1.0885e-06 7.57899e-07 -1.74006e-07
8.18875e-07 1.08079e-06 -1.79348e-08
1.77854e-06 1.12447e-06 -5.88443e-07
1.29368e-06 8.86253e-07 -4.53331e-07
1.07415e-06 1.03456e-06 3.80606e-07
3.56586e-07 3.00808e-07 -3.75564e-09
3.29652e-07 2.67387e-07 7.52203e-08
2.81418e-07 2.22005e-07 -2.08475e-07
-1.16941e-08 1.92603e-08 8.3981e-09
-8.13572e-09 2.40415e-08 -8.9763e-10
-8.51931e-09 2.36105e-08 -3.00098e-09
7.37629e-08 2.89731e-08 -7.71156e-08
1.43813e-08 5.54923e-08 -8.46852e-08
7.46438e-08 1.13024e-07 -1.80707e-07
-1.07939e-08 6.54384e-08 -7.20915e-08
1.31673e-07 2.03894e-07 1.49623e-08
3.36319e-06 5.95113e-06 -3.80368e-07
2.58186e-08 2.01829e-08 6.59304e-08
1.87991e-08 1.96302e-08 6.74049e-08
1.1184e-06 2.21921e-07 2.02181e-07
3.39759e-06 1.12277e-06 -3.654e-08
1.4209e-07 2.49593e-07 -1.01062e-07
1.90707e-07 1.4692e-07 -9.64949e-08
1.66601e-07 5.9281e-07 4.53437e-08
-1.31063e-08 1.02827e-06 8.73037e-08
2.14456e-08 7.29563e-08 8.04194e-08
1.60111e-08 7.4222e-08 7.33845e-08
2.14336e-08 2.33694e-08 -4.24986e-08
1.88849e-08 4.06137e-09 -1.70534e-08
1.59147e-08 3.38636e-09 2.30775e-08
1.80123e-08 1.22798e-08 3.91135e-08
1.52074e-08 1.7622e-08 -3.47327e-08
7.45884e-06 4.0176e-06 1.35807e-06
2.60843e-05 1.8986e-05 -1.52727e-05
-4.11125e-09 2.25327e-07 2.81642e-07
-1.18005e-07 1.82793e-07 2.20296e-07
8.27279e-07 1.63899e-06 -2.78682e-07
7.20663e-07 1.9523e-06 -2.37407e-07
0.000157897 1.20797e-05 3.0447e-05
0.000143175 1.40391e-05 3.66045e-05
2.41212e-05 1.65655e-05 -1.33077e-05
7.47598e-06 5.36944e-06 2.57885e-06
-8.58761e-07 6.8922e-07 -1.73672e-07
-8.88669e-07 5.86781e-07 -1.62104e-07
4.90388e-06 3.98324e-06 1.6791e-06
2.3696e-05 1.71123e-05 1.63548e-05
2.14865e-05 1.37798e-05 1.28038e-05
1.33441e-09 -6.11529e-09 2.10885e-08
-2.08715e-08 1.53637e-08 -1.32538e-08
-1.38889e-07 6.67406e-08 6.33565e-08
2.01786e-05 1.38144e-05 1.17722e-05
-1.98225e-07 6.11078e-08 -4.27563e-08
-1.55967e-07 7.53942e-08 2.61282e-08
-4.59091e-07 2.84963e-07 -2.08852e-07
-2.82368e-07 1.62206e-07 -1.25516e-07
-1.93707e-07 7.59992e-08 -4.92926e-09
1.18171e-06 5.44336e-06 -2.28426e-07
9.139e-09 5.10557e-09 -5.6028e-09
9.52943e-09 6.91536e-09 -1.02269e-08
-1.36211e-08 3.27811e-08 -1.70615e-09
7.70656e-09 2.3101e-08 1.73506e-08
-5.0008e-09 1.36533e-08 9.38545e-09
-1.44002e-08 2.72172e-08 1.08644e-08
-1.78136e-08 2.37828e-08 6.15152e-09
-3.17456e-08 5.56095e-08 -5.71152e-09
4.42853e-08 3.21042e-09 -4.96167e-08
2.73367e-07 3.20268e-07 4.14572e-08
2.77232e-07 1.56922e-07 -1.06452e-07
2.0399e-07 1.92357e-07 1.85568e-08
-2.28127e-08 9.63085e-08 -1.33177e-08
9.80343e-07 4.6468e-07 1.66491e-09
-3.88376e-06 3.48969e-06 2.20706e-06
-2.73994e-06 3.57015e-06 2.17359e-06
-1.08677e-06 5.19622e-08 4.14525e-07
-9.42071e-07 -6.19741e-08 6.26925e-07
1.53127e-06 7.31797e-07 -4.15494e-08
1.39853e-06 2.63492e-07 4.74947e-07
-1.47916e-08 9.87016e-09 5.80827e-08
-5.05355e-07 -1.33654e-08 -4.51478e-07
-8.69225e-07 6.86532e-08 -4.11468e-07
-4.45193e-09 8.50507e-10 5.41126e-09
-1.18504e-08 6.86557e-09 1.33522e-08
-1.08955e-08 -6.06089e-10 -1.47746e-09
1.72058e-07 5.05852e-07 1.29409e-07
1.34666e-07 4.92322e-07 1.03396e-07
-2.68889e-08 2.2181e-08 2.12682e-08
3.48845e-07 2.44327e-07 -2.71913e-07
-5.03191e-08 2.747e-07 1.27276e-07
-1.47662e-06 2.02409e-06 3.3446e-07
-1.40316e-06 1.93639e-06 2.71994e-07
-1.49535e-07 2.51372e-07 1.27731e-07
-8.54469e-08 1.06551e-06 -7.38545e-08
-2.28538e-08 1.12855e-06 -1.08161e-07
3.21238e-07 5.93819e-07 -3.78251e-08
-2.58936e-08 2.68249e-08 3.34124e-08
1.62125e-06 2.63441e-06 -9.23363e-07
1.84062e-06 1.89317e-06 -3.93205e-07
-1.09475e-07 2.09689e-06 -9.8166e-07
-3.27062e-08 3.76805e-09 -9.62026e-09
3.52649e-05 2.34664e-05 3.32102e-05
2.80111e-05 2.28387e-05 3.00709e-05
7.80311e-09 -3.23291e-10 -1.22535e-08
4.43958e-09 7.8604e-08 3.52557e-08
4.11891e-05 2.38682e-05 -3.04529e-05
1.66831e-08 1.34756e-07 6.58038e-08
2.51329e-08 2.80839e-08 5.67047e-08
4.16434e-08 2.3861e-08 5.68608e-08
3.68512e-07 3.75546e-07 -3.09065e-07
2.72694e-08 2.42003e-08 4.46878e-08
2.88301e-06 6.06069e-06 -1.09503e-06
3.77575e-06 4.15781e-06 -5.58228e-07
1.38166e-08 6.70593e-08 8.72365e-08
-1.26064e-08 7.28596e-08 2.07992e-08
-2.62176e-08 1.40814e-08 2.94457e-08
-1.38403e-08 5.33974e-10 8.43187e-09
7.18584e-06 1.52331e-06 -4.1004e-07
9.08928e-06 2.25161e-06 -3.52436e-06
-2.51451e-06 2.10685e-06 1.32287e-07
-1.62214e-07 3.70258e-07 4.3268e-08
2.40776e-06 9.56494e-07 -2.09672e-07
-6.18319e-08 8.1176e-08 8.27605e-09
-2.60499e-08 9.50276e-08 -4.91868e-09
-1.86775e-06 1.123e-07 7.38541e-07
-2.12067e-06 4.93563e-07 -3.58219e-07
-9.16444e-07 2.24796e-07 -7.97997e-08
-1.07432e-06 1.35978e-07 -3.47909e-07
-7.36686e-08 9.92369e-08 -6.3827e-08
-4.23456e-07 3.59638e-07 3.18383e-09
4.95795e-07 1.66292e-07 -2.59202e-07
4.96115e-07 1.84885e-07 -2.09198e-07
-4.44567e-07 3.70511e-07 8.26861e-09
6.93525e-07 4.97357e-06 7.69197e-08
1.77681e-06 4.25463e-06 1.86226e-08
1.1952e-06 3.78996e-06 1.77172e-07
1.34928e-08 1.55076e-08 5.57525e-08
7.49951e-06 1.61099e-06 2.61781e-07
8.33839e-06 1.78343e-06 -1.13977e-06
-1.49164e-06 6.55975e-06 -1.14564e-06
1.29447e-08 -2.10925e-09 1.54202e-08
1.98954e-06 4.31197e-06 6.41258e-08
3.68387e-06 8.02449e-06 4.23287e-06
4.78618e-06 5.94064e-06 2.59245e-06
8.96063e-06 7.79106e-06 3.67466e-06
1.11705e-07 4.17419e-07 7.12467e-08
7.91114e-08 5.39934e-07 5.19204e-08
-3.20472e-07 1.56596e-06 1.78602e-07
-6.9531e-08 8.72849e-07 1.03754e-07
6.79297e-07 2.96286e-07 1.48629e-07
3.57294e-07 5.31342e-07 1.07855e-07
1.92543e-06 6.50039e-07 -3.16341e-08
2.53884e-06 1.0536e-06 3.72266e-07
-3.77892e-08 1.10805e-09 2.97022e-08
-3.23291e-08 -2.39665e-09 1.55458e-08
7.54026e-08 1.86951e-08 -8.17056e-08
5.93546e-08 8.51353e-09 -4.96911e-08
-2.17951e-08 7.31821e-08 1.10281e-07
1.53529e-08 5.98526e-08 1.17203e-07
-1.55035e-08 6.1881e-08 1.0306e-07
2.67169e-07 1.01971e-07 2.03798e-07
3.99377e-07 2.43451e-07 -6.35805e-08
5.63426e-07 2.6533e-07 1.41633e-07
2.35886e-08 7.52959e-08 -8.21721e-08
1.27883e-08 7.65871e-08 -7.82503e-08
-4.10364e-08 5.83339e-07 -3.37833e-07
3.40604e-08 3.40157e-07 -2.02213e-07
-4.84523e-07 3.23875e-06 -5.84531e-07
-1.09384e-06 2.37926e-06 -4.36252e-07
-1.43601e-08 6.3173e-08 -5.60019e-08
2.09145e-07 -3.63921e-09 -4.14751e-08
-2.14346e-08 5.48842e-09 1.23918e-08
1.33767e-08 3.32392e-08 -5.13724e-08
-1.49609e-06 3.97249e-06 -1.72444e-07
-8.08499e-08 3.73032e-07 -2.76977e-07
-1.43328e-07 3.23919e-07 -2.28382e-07
2.00475e-05 2.86672e-05 2.82712e-05
1.66824e-06 8.60049e-07 1.24635e-06
8.08818e-05 7.08065e-06 6.50223e-06
9.07486e-05 7.3834e-06 -4.90044e-06
7.41723e-05 7.55451e-06 -1.33244e-05
8.76609e-05 7.18837e-06 -1.72129e-06
1.85939e-06 8.41922e-07 1.18079e-06
1.93073e-05 2.38526e-05 2.27428e-05
1.81123e-05 2.38027e-05 2.08905e-05
4.5397e-08 2.91404e-08 -8.11288e-08
-2.5424e-08 5.7407e-09 -2.8801e-08
-1.26058e-08 4.73294e-09 -5.16731e-08
5.10353e-08 1.8373e-08 -6.73634e-08
2.3025e-08 8.53475e-09 -3.30966e-08
1.40015e-07 2.45472e-07 8.67358e-08
1.03448e-07 3.64237e-07 2.17861e-07
-6.65146e-07 8.53397e-08 2.50037e-07
-2.06056e-05 8.77624e-06 -8.63833e-06
-2.17655e-05 8.73075e-06 -9.09535e-06
-8.7617e-07 7.89618e-07 -2.19173e-07
2.13665e-07 2.05126e-07 -1.66547e-07
3.63437e-07 3.86159e-07 1.09543e-07
1.89389e-07 5.19332e-07 -2.75337e-07
1.78527e-07 2.1828e-07 -1.46595e-07
1.26131e-07 4.67818e-09 7.52967e-08
1.03366e-07 5.49147e-08 1.32399e-07
6.5122e-08 3.29901e-08 8.55235e-08
1.17428e-06 1.5815e-06 -1.07616e-07
1.30108e-06 1.78471e-06 -1.10421e-07
-4.13887e-05 1.71213e-05 -2.586e-05
-9.50997e-08 2.02348e-07 4.46782e-09
3.42007e-08 6.88871e-09 2.28647e-08
-2.956e-08 6.92588e-08 1.25713e-07
6.23172e-07 1.90372e-06 -2.0183e-07
6.51606e-07 1.36515e-06 -1.68054e-07
-5.3928e-08 9.11647e-08 -1.70634e-09
1.17378e-07 1.86588e-07 4.03926e-09
-1.06672e-07 1.61527e-07 -1.18153e-08
-1.62516e-05 1.22335e-06 -4.83143e-07
2.26664e-09 1.05795e-07 -5.12024e-08
-4.11463e-09 9.01453e-08 -4.48962e-08
-9.87969e-06 -3.69758e-08 -1.70513e-06
7.9432e-07 7.30812e-07 -2.53394e-07
-1.35329e-05 2.79388e-06 2.14854e-06
-1.12053e-08 1.02174e-07 1.84859e-09
1.62872e-06 6.06478e-07 1.27274e-07
1.80522e-06 4.79581e-07 4.61489e-07
2.44853e-09 6.73211e-08 -3.49141e-08
-9.22142e-09 7.94528e-08 2.40186e-08
1.13896e-07 2.03523e-07 -1.2148e-07
1.77991e-08 -1.04739e-08 -1.76257e-08
1.75859e-08 4.29761e-10 -3.66135e-08
4.46322e-07 4.62933e-07 -1.22577e-07
5.53836e-07 3.89793e-07 6.7728e-08
2.65661e-06 2.08703e-06 8.25498e-07
3.13956e-05 2.54596e-05 3.25991e-05
2.42948e-05 2.52621e-05 3.02079e-05
1.73683e-08 7.9226e-10 2.7506e-09
-1.55471e-08 2.08185e-10 -1.55988e-08
2.4375e-05 2.47757e-05 2.76666e-05
3.59065e-07 9.67589e-08 1.54159e-07
1.83366e-07 1.43931e-07 1.48919e-08
-2.16929e-08 5.56954e-08 -1.46865e-09
-1.05501e-07 2.062e-07 1.8522e-07
-9.42609e-08 2.26476e-07 1.86052e-07
-4.5659e-07 3.49326e-06 2.9636e-07
-1.03257e-07 4.48422e-08 4.15177e-08
-2.46686e-08 1.2328e-07 9.7217e-08
-3.14515e-05 3.10603e-05 -5.13866e-05
-2.48728e-05 2.91784e-05 -4.41241e-05
-6.11609e-07 3.48428e-06 3.09581e-07
1.08027e-06 1.20458e-06 -2.33353e-07
-2.04995e-07 2.97435e-06 3.94626e-07
-2.59916e-09 -3.30966e-09 -2.29503e-08
3.32814e-07 7.77806e-07 -1.964e-07
6.14844e-06 3.46194e-05 -3.3908e-05
4.0749e-07 5.47922e-07 -6.96808e-08
9.14766e-07 6.15074e-07 6.2092e-07
5.95421e-08 1.04857e-07 -5.28927e-08
-3.26141e-08 4.70971e-08 3.0005e-08
8.73044e-09 2.10819e-09 -3.40827e-09
-4.21431e-09 3.17826e-09 -2.05752e-08
-1.92816e-05 1.98278e-05 -1.94958e-05
-3.01995e-08 6.22711e-08 9.69448e-08
1.27352e-06 4.83488e-07 -1.61652e-07
-5.37805e-09 -2.6268e-09 2.11657e-09
6.91768e-08 1.33518e-07 1.46171e-07
2.2253e-08 9.59596e-10 2.28024e-08
1.4232e-05 2.42429e-05 -1.78794e-05
2.63364e-07 9.01576e-08 -1.05824e-07
1.39153e-05 2.47934e-05 -2.04249e-05
0.00031457 2.31589e-06 -4.84183e-05
0.000291816 5.55704e-06 -5.41798e-05
1.5946e-08 9.91746e-08 9.51268e-08
0.000168005 3.46876e-05 -9.86043e-05
1.39725e-08 1.1183e-07 9.14381e-08
-5.03602e-08 6.56001e-08 1.25119e-08
-5.8635e-08 4.77068e-08 -5.57095e-09
4.3641e-08 1.54123e-07 1.30159e-07
1.04188e-06 1.07605e-06 -3.41518e-07
1.4611e-08 4.96306e-10 -9.83498e-09
3.45326e-07 2.67311e-07 -8.91097e-08
3.45258e-05 3.37271e-05 -3.67e-05
3.47183e-07 1.8886e-07 7.4983e-08
3.51865e-07 1.52262e-07 1.3695e-07
3.57808e-07 1.80478e-07 1.16006e-07
3.22868e-05 2.60369e-05 3.65635e-05
-8.96465e-08 4.84482e-08 -1.56503e-08
-7.85086e-08 4.14748e-08 -4.41945e-08
-1.80397e-07 1.05216e-07 -8.35786e-09
-3.17143e-07 2.64516e-07 -6.82263e-08
3.64605e-05 2.99943e-05 4.14862e-05
7.46611e-06 3.71365e-06 -1.03992e-06
3.02658e-06 4.56939e-06 -2.17725e-06
3.31486e-06 4.51389e-06 -1.9862e-06
0.000202791 7.65277e-06 -2.56759e-05
0.000190254 8.57009e-06 -2.38415e-05