# vtk DataFile Version 2.0
S, Created by Mohamad Ibrahim Cheikh
ASCII
DATASET UNSTRUCTURED_GRID
POINTS 10490 double
-223.577 20.3393 -34.7912
-223.728 23.2861 -32.7655
-130.49 -29.3008 69.2876
-194.383 -37.8828 -41.0231
-207.469 29.5102 40.0417
-235.875 27.4001 13.4741
-191.273 -39.7116 -41.083
14.3857 -3.10885 87.8009
-191.059 39.2297 -41.6639
-193.399 36.9391 -42.4292
-251.146 3.21322 -3.38129
-251.007 5.46309 -0.715149
-204.325 29.3032 -42.1187
18.5791 -1.47475 87.7472
-201.228 30.365 -43.1793
-151.292 68.7474 -14.6785
-148.488 69.9588 -12.2603
241.381 21.7608 -11.7085
240.378 24.3448 -8.78212
39.2662 72.9749 -47.2217
43.1113 72.2574 -47.9095
45.3942 -3.18137 -86.4962
49.2583 -1.49776 -86.2826
-145.562 -45.4922 -55.5009
-142.058 -46.9164 -55.427
-191.797 -27.3625 49.9155
-189.472 -30.041 49.4604
-64.3402 -67.8337 51.3397
-66.4829 -66.0144 53.3381
-121.225 -41.6771 -64.8678
-205.485 44.6098 24.1752
-208.429 41.8742 25.9204
-64.8743 -22.5582 81.9747
-61.2455 -23.9122 81.9327
44.2917 4.21816 86.5218
-201.398 -44.9172 27.5775
-51.1899 82.8061 -23.7978
-47.9643 82.505 -25.5983
-109.54 -78.4117 -11.2491
-105.514 -79.2425 -10.0786
-195.489 42.6437 35.3086
-200.946 -43.0027 30.8397
-54.4241 -15.2944 84.5426
3.50077 8.31546 87.5977
226.254 36.0726 -13.2455
223.493 37.2793 -15.458
-146.981 22.4323 -67.7929
-143.822 23.7031 -68.1889
-167.022 -43.0223 -49.7766
-163.504 -43.477 -50.8012
-215.266 -7.1565 -44.9381
-215.166 -3.16053 -45.4526
-105.623 -17.5906 77.9019
-104.086 -21.128 77.2736
-247.96 -12.5216 7.72453
-247.222 -12.2235 10.5723
-226.223 -18.8451 33.5149
-129.023 -40.8333 -63.5497
238.447 4.07573 -27.6837
236.191 2.11814 -30.1595
30.6524 -3.6978 -87.2657
26.683 -1.95356 -87.4815
-224.96 -22.5389 32.2512
-47.6611 -75.8712 41.3455
-235.553 -26.7704 15.3058
-110.084 51.2765 -60.2581
-237.92 -25.2887 13.1992
-16.8471 -1.41142 -87.791
-20.0177 -3.96684 -87.6311
25.2962 7.61167 -87.2222
27.3268 3.77509 -87.3975
25.4243 1.7644 -87.5314
45.9564 -6.29808 -86.2888
-242.159 -16.9743 16.6267
249.587 -5.36883 -9.40941
249.11 -2.30246 -11.8809
-169.137 48.1716 43.8304
30.4692 -13.4622 -86.3082
-165.509 47.9446 45.7336
-244.371 -14.4427 14.9733
243.986 6.92812 20.1944
244.544 3.56454 20.2422
-218.53 -34.2525 26.9086
-142.145 -69.4108 21.2697
-139.63 -70.7397 18.7867
-221.095 -32.0561 27.0485
-157.97 -59.7995 33.3591
-205.035 32.4666 39.2814
-154.319 -61.3633 32.6031
21.3232 7.43155 87.3676
-119.041 18.5534 75.2652
-116.374 20.645 75.2311
25.5776 -59.0299 64.6481
29.1119 -57.6576 65.6951
-134.479 55.0906 -49.9492
-136.752 52.5938 -51.849
-177.086 57.923 23.4426
-176.678 59.3998 19.8491
-69.5305 65.551 -53.4339
-62.7243 16.9553 -83.5155
-66.3437 16.9258 -83.1784
-66.0104 67.1291 -52.002
124.448 57.751 50.127
121.014 58.3577 50.4526
-132.441 -69.8469 26.794
-132.815 -68.0008 30.9878
-188.851 35.1271 46.2996
-185.104 37.2995 46.4527
-232.725 13.1752 -30.6503
-59.1604 75.5561 40.0846
-60.4703 77.0663 36.8388
-231.927 16.7994 -29.6014
-175.27 -46.9575 -42.1659
-178.783 -11.2251 60.8662
-181.795 -8.37375 60.2296
-195.811 53.7581 12.6426
-198.363 52.0716 14.6689
-195.137 -6.40232 -55.1459
-196.108 -2.36199 -55.0448
-155.751 25.0841 64.3804
-159.446 22.4983 64.2284
-196.21 -54.5515 -7.39879
-193.182 -56.048 -5.7964
-90.7641 75.3366 -32.5545
-86.7618 75.7439 -32.9431
-39.232 -78.9668 -36.3291
-42.7329 -77.6537 -38.6049
-35.6882 20.7061 -84.6128
-119.248 -59.0756 -50.1309
-116.053 -58.3876 -51.8262
-103.565 -58.9096 54.4106
-107.459 -57.2171 55.2851
-176.044 46.9175 -41.8143
26.8988 14.0863 -86.3539
23.7582 15.8321 -86.164
-175.594 44.5888 -44.5075
-89.4417 -39.5834 72.0953
-93.3104 -38.4416 72.1128
-1.70799 -75.0115 -46.01
2.63106 -75.248 -45.6167
-158.02 -33.1935 -59.8753
-154.736 -36.6303 -58.9139
25.095 73.1463 48.1302
27.6413 71.1591 50.861
-166.545 38.828 53.2963
-168.961 36.4566 54.0351
126.637 60.2658 46.3533
124.979 62.2382 44.2501
55.9067 20.2686 83.3698
-158.137 12.6596 67.2463
-155.542 9.86045 68.4453
-43.3414 74.0114 -45.1258
70.8659 53.1167 -65.6336
-40.5858 75.6588 -42.639
222.064 -27.8282 -30.5326
225.276 -26.0123 -29.2253
-15.9852 80.25 -35.6742
-18.8853 79.0375 -38.1235
247.477 -7.06407 13.9944
245.671 -9.07238 16.5073
-182.887 19.8623 57.0479
-181.347 22.706 56.5872
-55.0125 69.0809 51.003
-52.741 70.9483 48.6805
-221.67 26.3882 -32.1203
245.288 -12.7014 14.713
-123.333 -44.6574 -62.3491
-128.466 -46.8987 -59.3631
-126.78 -44.2463 -61.7934
-219.064 -11.0516 41.7919
-206.361 49.883 -6.47969
-208.045 48.5209 -9.51709
-173.561 -35.1373 53.1163
-196.132 -34.8661 -42.6465
-56.8102 10.6904 85.0564
-99.042 80.745 4.82635
-149.825 -21.4644 67.3425
-153.216 -21.7089 66.3223
-105.231 79.8951 2.24317
-102.853 80.1269 5.33955
-208.259 -1.82412 -49.3016
-211.701 -0.423887 -47.506
6.80653 77.0269 -42.4874
8.19974 75.2361 -45.5555
-13.7762 86.225 -16.9116
-17.7778 85.5557 -19.6348
11.9547 74.6299 -46.4423
-209.314 34.9108 -34.0773
-209.416 37.4884 -31.1353
-243.668 12.2929 -17.9917
-205.985 40.0994 -30.6813
-237.951 16.7322 23.0641
-240.123 13.5378 22.3945
-198.665 34.6923 41.3327
-44.0852 -51.8559 -69.4048
-47.9308 -52.173 -68.8528
-63.7801 78.7044 -32.428
-60.6056 79.676 -30.7577
-198.895 37.6904 38.4731
-195.373 39.9885 38.3625
193.192 51.8483 -22.051
191.206 51.6132 -24.5773
-17.1646 73.2927 -48.3333
-16.0727 71.5075 -50.9809
-160.705 -8.67173 67.1335
-158.248 -5.13957 68.2028
-159.177 -12.1827 67.0338
-155.582 -13.9446 67.7201
-181.216 -39.3669 -46.6233
-187.067 -34.8932 -47.3513
234.201 -8.19801 31.0077
231.367 -8.83949 33.3482
-185.723 -37.8046 -45.7366
-220.423 -36.3319 -21.8075
-223.2 -33.1947 -23.2995
-73.8072 69.8117 46.9403
-199.24 43.3787 -31.6582
-202.403 40.5236 -32.9579
-78.6153 72.0991 42.2972
-74.726 71.981 43.3484
-199.862 -47.1004 -25.2007
-196.405 -49.1626 -24.5822
-156.237 -38.5601 57.1716
-155.213 -34.6018 59.977
-162.89 56.2731 -36.4534
-159.738 58.1004 -35.2757
245.94 -16.0777 8.95241
246.756 -13.0533 10.9096
-202.187 25.1266 -45.9103
246.469 -16.6405 5.45941
-222.675 -40.7293 -3.81038
-219.564 -42.6764 -4.53575
-225.908 36.4569 -12.9114
-224.082 36.217 -16.8753
-228.9 -34.8682 10.6502
-231.376 -33.5771 7.89193
-225.472 -37.7617 9.69449
119.548 74.8285 19.8732
-172.163 -51.1025 -38.7774
115.353 75.6443 19.8207
47.921 12.1832 -85.5244
51.5073 10.7816 -85.4573
-180.22 -22.1715 57.2363
-179.927 52.3283 -32.2837
-165.446 0.85013 66.2726
-168.569 2.82858 65.2462
-181.018 -17.4134 58.5579
36.4518 -59.7524 63.3323
37.7863 -57.2054 65.5495
-159.984 -59.9392 -31.9013
-182.766 -21.7972 -56.3851
-184.309 -18.029 -57.0964
-11.9276 15.1758 -86.581
-188.59 -54.9977 19.1019
-192.466 -53.121 19.6705
-145.925 9.34495 -71.0608
-143.728 12.1523 -71.1842
-174.345 52.4351 35.6809
-173.414 50.7293 38.5843
-187.165 39.7302 -43.3204
-231.493 33.5 -7.79802
-229.088 35.9737 -4.95853
-234.9 30.8741 -5.94365
241.404 7.72115 23.4446
239.892 10.8371 24.1019
240.609 13.4022 21.8297
-138.878 -61.8297 -39.4938
-138.123 -60.162 -42.2945
-141.494 -58.249 -43.588
-200.351 -41.1636 -33.6918
-218.714 20.1182 -38.5057
-52.6421 9.11747 85.5663
-56.6794 -81.1828 27.5689
-60.1939 -81.4605 25.7795
-152.594 56.1726 41.6878
-153.339 58.07 38.6415
-189.411 -9.89483 -57.0412
-186.063 -8.87782 -58.538
64.9144 -8.70186 84.5717
67.8937 -7.06207 84.438
-196.835 -37.2186 40.1914
-200.414 -34.6089 40.357
-180.668 -48.2453 -37.6851
-174.532 -52.0916 -36.0706
-215.618 -38.5089 23.8563
-218.655 -36.4147 23.7609
-178.254 -50.9815 -35.4221
-121.465 47.9934 -60.2853
-70.9499 59.8607 59.5349
26.871 -68.2979 54.69
24.807 -66.5855 56.8773
-87.1838 -8.56978 -82.0973
-84.005 -6.25924 -82.7094
-29.6713 86.0587 -15.1692
-33.5568 85.6083 -16.6541
-74.7821 60.3357 58.4715
-117.531 49.0476 -60.3916
67.0806 -10.9583 -84.1011
63.331 -11.566 -84.3752
-122.262 44.7864 -62.5147
-75.8192 64.3509 -53.8438
-79.3711 64.4805 -53.0564
-210.937 -46.4387 -11.8317
-207.911 -47.2772 -14.7163
-70.3854 -66.9046 51.5872
-82.1424 61.9815 -55.4636
181.002 57.5736 -20.4513
187.791 54.7436 -20.7265
-57.9928 -57.765 -63.2096
-60.2522 -59.9472 -60.8759
185.027 56.5069 -18.9619
-52.2024 4.99925 85.9382
170.803 -60.9399 -21.4146
166.658 -61.8362 -22.7993
-242.161 -11.2303 20.9366
-241.443 -7.71412 23.3973
231.622 25.8612 -22.5152
229.371 25.1806 -25.8602
225.984 27.6879 -26.9257
-235.385 -18.9687 -24.5116
-234.849 -16.6286 -26.7385
-226.063 27.1674 -27.371
-222.947 28.4637 -29.1268
-220.765 31.3789 -28.1504
-250.634 -7.29361 -0.178647
-176.035 45.3131 43.5524
58.6171 51.3085 -68.4892
59.7145 48.481 -70.4062
128.094 68.3814 32.5446
131.588 68.3039 30.9619
-176.914 47.6253 40.5456
-181.018 46.7579 39.319
18.7047 -86.4178 15.2685
142.027 69.3641 -21.5174
141.084 68.3971 -25.0776
23.2384 -86.1703 15.8922
181.098 -44.0244 42.3151
25.6366 -86.6619 12.3796
-189.024 21.6505 -53.8593
-189.445 17.9043 -55.0409
-212.327 -45.0142 14.0797
-120.844 -47.0003 -61.2134
-24.3213 -37.2698 79.2625
52.2974 18.5618 -84.0512
55.8123 16.7737 -84.1503
-25.2926 -41.1192 77.2974
-119.138 -6.52139 -77.225
-115.758 -7.73653 -77.7406
-200.045 16.4808 50.7243
-215.148 -43.2639 14.3205
-153.408 33.0783 61.3884
-156.83 31.3848 61.2189
-157.698 28.2378 62.4656
-79.968 -83.4309 0.602819
-62.6864 73.2515 -43.5559
-62.0905 71.1943 -46.9401
-79.8044 -83.3553 -4.02123
-209.642 -18.6806 44.8805
-59.3618 71.8248 46.4087
-205.671 -19.6725 46.6703
-191.283 -46.3881 33.3544
-190.153 -45.0074 35.937
-195.127 47.3294 29.0249
-192.216 -42.6378 37.451
-97.6493 19.8978 78.6172
-94.0439 21.0477 78.8555
-195.846 -41.8716 35.9845
-247.68 -8.81111 12.4835
188.064 -42.0216 40.596
184.93 -44.2656 39.9695
-127.081 75.5272 7.90179
-123.424 76.0686 9.61928
48.8348 1.71905 86.308
130.444 15.5982 -73.6034
-179.674 46.5369 -40.3225
198.594 13.1814 52.3605
200.49 9.435 52.2852
113.326 74.8991 23.7022
109.58 75.3564 24.3985
149.548 63.7463 -30.6966
145.717 65.3563 -29.5456
-166.876 -45.6686 -47.4236
129.838 19.3618 -72.8369
-209.797 43.7096 -21.0888
-206.936 46.1331 -19.3118
126.462 20.2142 -73.3307
-61.8821 -0.257711 85.2942
-59.157 2.6548 85.4898
[...]
POINT_DATA 10490
VECTORS F double
1.3898e-08 3.13631e-08 7.40102e-09
1.27583e-07 9.03324e-08 -4.24574e-08
1.46911e-07 7.26993e-07 3.41309e-07
5.79121e-08 -7.34529e-09 -2.68127e-08
2.90269e-07 2.58813e-07 -6.60886e-09
1.82528e-07 1.95156e-07 -5.65342e-09
8.4448e-08 2.60574e-08 -7.33236e-08
-1.94427e-06 2.38777e-06 1.23548e-07
9.51852e-07 7.20567e-07 1.44066e-07
1.0344e-06 6.25921e-07 -3.2324e-08
1.2237e-08 7.38572e-08 -4.10808e-08
1.07562e-08 5.7914e-08 -1.97376e-08
1.02666e-07 3.55234e-07 1.8617e-07
-2.39075e-06 3.96762e-06 1.28659e-07
1.43498e-07 1.21844e-07 3.80978e-09
3.38754e-06 6.89142e-07 -1.04712e-06
4.35316e-06 7.98119e-07 -1.90072e-06
-1.11484e-08 2.13804e-08 1.16007e-08
-1.31695e-08 2.07674e-08 1.34369e-08
-2.75001e-05 6.07077e-06 6.58195e-06
-2.67698e-05 4.8867e-06 4.42098e-06
-3.16666e-06 1.84687e-06 -2.71396e-07
-2.87974e-06 1.35418e-06 -2.24787e-07
3.136e-08 2.19365e-07 -1.89876e-07
5.81575e-08 2.46759e-07 -2.27119e-07
1.66955e-08 1.69442e-07 1.00738e-07
1.32872e-09 1.44641e-07 8.84743e-08
-4.59725e-08 1.95659e-07 2.51466e-07
-1.93159e-07 1.51611e-07 1.58166e-07
2.5325e-07 2.12212e-07 -1.94289e-07
5.68412e-07 2.58176e-07 1.15107e-07
3.79062e-07 2.8278e-07 -8.36516e-08
1.4997e-07 3.03264e-06 8.49068e-07
-2.66083e-07 1.66526e-06 4.61657e-07
-2.05891e-06 3.10484e-06 -2.23281e-08
1.50138e-08 2.89357e-08 6.05524e-08
8.59616e-05 1.54445e-05 3.11015e-05
9.31593e-05 1.80447e-05 3.6788e-05
4.00228e-08 4.41264e-10 -5.0792e-08
3.45693e-08 -2.75478e-09 -2.26506e-08
6.47651e-07 3.53067e-07 1.25947e-08
2.78218e-08 2.95053e-08 6.33366e-08
2.95514e-07 2.87875e-06 5.4408e-07
-1.58731e-06 3.76279e-06 -3.49426e-07
-2.22514e-08 1.36151e-08 -9.4533e-09
-3.77426e-08 3.44343e-08 1.62371e-08
1.28984e-06 8.79032e-07 -5.15094e-08
1.13206e-06 1.61755e-06 2.69945e-07
-5.16806e-08 1.03865e-07 -6.85406e-08
-4.49248e-08 1.16857e-07 -8.23071e-08
5.3673e-08 1.4678e-07 -5.48526e-08
7.04048e-08 1.55807e-07 -5.16379e-08
9.88339e-07 2.38011e-06 7.01502e-07
1.07364e-06 2.30661e-06 8.07724e-07
-4.0184e-08 9.8229e-08 1.30216e-09
-2.82116e-08 7.42053e-08 5.02422e-09
6.00837e-08 9.79098e-08 1.04706e-07
1.7984e-07 3.56479e-08 -6.76078e-08
-1.7981e-08 1.21411e-08 -1.71743e-08
-1.70002e-08 7.3999e-09 -1.57789e-08
-2.51327e-06 2.97676e-06 -2.34219e-07
-2.30137e-06 3.86183e-06 -1.72179e-07
1.38835e-08 8.76174e-08 7.30877e-08
-3.93795e-08 5.73017e-08 9.95941e-08
-1.10177e-08 1.25818e-08 1.24614e-09
1.17529e-05 6.07238e-06 2.53855e-06
-2.09425e-08 3.71631e-08 2.49851e-08
-3.77346e-07 4.81382e-06 -6.85297e-08
1.86909e-07 3.8081e-06 -1.77613e-07
-8.41918e-07 6.62291e-06 5.4807e-07
-3.26933e-06 5.20779e-06 9.9795e-08
-2.23499e-06 4.03507e-06 1.85668e-09
-1.28366e-06 2.12962e-06 -2.39139e-07
5.75398e-09 4.52635e-08 5.64693e-08
2.60485e-09 1.26728e-08 1.23555e-09
-3.24718e-09 4.56917e-09 -9.21813e-09
3.76403e-07 3.8487e-07 -2.45158e-07
9.54171e-07 1.60281e-06 -2.08762e-07
5.28284e-07 5.62672e-07 -3.55805e-07
1.1923e-09 2.91055e-08 3.04533e-08
-1.00316e-08 1.0737e-08 1.11559e-08
-3.09723e-09 1.10222e-08 2.64031e-09
2.02775e-08 1.57552e-08 4.0217e-08
2.73692e-08 6.42117e-09 4.33473e-08
1.41764e-08 3.60031e-09 2.64561e-08
1.67553e-08 1.83408e-08 3.85032e-08
4.00137e-08 3.44951e-08 8.50346e-08
2.42856e-07 2.98749e-07 -9.17253e-08
4.15796e-08 2.95277e-08 7.96707e-08
-4.10289e-07 4.8111e-06 -3.96974e-07
2.24704e-06 2.79656e-06 -2.54261e-07
2.08535e-06 3.26005e-06 -4.99691e-07
-2.47463e-08 2.02943e-07 1.86504e-07
-6.91788e-08 2.98497e-07 2.6573e-07
4.81622e-06 2.9282e-06 1.64207e-06
5.78304e-06 2.4692e-06 6.3725e-07
4.48583e-07 3.41261e-07 -4.28328e-07
1.29835e-06 5.80736e-07 -3.22993e-07
2.51957e-05 1.84821e-05 1.86592e-05
2.01595e-06 1.95071e-06 2.1066e-07
1.77522e-06 6.59254e-07 -3.92067e-08
2.42652e-05 2.0719e-05 2.29749e-05
-1.05002e-06 3.41154e-07 -7.38799e-08
-1.11067e-06 3.91116e-07 -1.26233e-07
4.13851e-09 1.35536e-08 3.78357e-08
1.46482e-10 1.87889e-08 4.13071e-08
1.02599e-06 5.47112e-07 9.7268e-08
1.01701e-06 6.71499e-07 -4.30265e-08
6.09518e-08 8.51277e-08 -2.00689e-08
4.47754e-05 2.11388e-05 -3.17541e-05
4.50806e-05 2.09308e-05 -3.4727e-05
3.53182e-08 8.77685e-08 1.59322e-08
4.46491e-08 -2.26619e-08 2.51483e-09
4.54133e-07 3.88152e-07 2.34898e-07
2.28013e-07 1.45278e-07 1.04458e-07
6.73299e-07 3.66037e-07 -2.79708e-07
8.08861e-07 3.85825e-07 -3.04573e-08
-5.75134e-09 1.18207e-07 -1.12315e-08
1.25963e-07 1.63397e-07 -6.1954e-08
4.0651e-07 2.39832e-06 -8.14038e-07
1.26959e-06 9.68717e-07 4.65393e-08
8.14992e-09 -2.00901e-09 -1.16484e-08
-1.22627e-09 -7.08061e-10 1.18469e-08
2.60315e-05 7.20867e-06 7.79625e-06
2.73126e-05 8.92719e-06 1.17188e-05
-4.43894e-08 5.08582e-08 -1.04678e-07
-3.01451e-08 6.57415e-08 -1.28153e-07
1.06506e-06 9.76496e-06 2.33463e-06
1.28933e-07 1.58091e-07 -2.23848e-07
1.25967e-07 1.83725e-07 -2.4152e-07
4.27437e-08 1.53371e-07 1.76013e-07
9.02435e-08 2.45889e-07 2.75957e-07
2.39907e-06 7.38482e-07 -4.07991e-07
-5.3449e-07 6.14769e-06 9.82444e-07
-2.27169e-06 3.52737e-06 5.71442e-07
7.4243e-07 1.08473e-07 -2.4994e-07
2.5831e-07 5.96535e-07 3.66757e-07
3.1674e-07 9.12435e-07 5.36574e-07
-6.39623e-08 8.32564e-08 -1.35445e-07
-6.27403e-08 6.02988e-08 -9.99105e-08
1.25642e-07 2.37948e-07 -1.7251e-07
2.75875e-08 1.50404e-07 -1.02386e-07
-3.76402e-05 1.6496e-05 -2.2667e-05
-3.52003e-05 1.69959e-05 -2.14366e-05
2.67777e-06 1.19169e-06 1.56285e-07
2.33291e-06 1.36716e-06 -2.93087e-08
-5.73597e-07 1.41373e-07 8.05915e-09
-1.41214e-06 1.4786e-08 4.67515e-07
-1.12698e-06 1.0158e-06 -1.54431e-07
9.71455e-07 1.04115e-06 8.3687e-08
2.64934e-07 2.78682e-07 3.35625e-08
4.50343e-05 3.21721e-05 4.74701e-05
-5.76595e-06 2.95918e-06 1.63264e-06
5.28648e-05 2.94215e-05 4.60448e-05
-2.29506e-09 7.5488e-09 -8.92461e-09
-1.47365e-09 5.92509e-09 -6.66323e-09
0.00011313 3.78794e-05 7.90037e-05
0.000100668 4.19015e-05 8.07648e-05
-8.34167e-10 -4.73348e-10 1.5651e-09
-1.38556e-09 6.83799e-10 2.90013e-09
3.88053e-07 5.58695e-07 -4.22118e-08
3.35133e-07 6.1355e-07 -1.147e-07
3.89163e-05 2.96782e-05 -3.50583e-05
4.16738e-05 2.89501e-05 -3.66649e-05
1.99811e-07 7.85919e-08 -1.04258e-07
-4.14255e-09 -1.68319e-09 7.00394e-09
2.44719e-07 1.93758e-07 -1.98045e-07
1.21574e-08 1.29862e-07 -1.05816e-07
2.27416e-07 3.67794e-08 -8.34593e-08
1.17523e-09 1.35099e-07 3.64795e-08
5.5372e-07 2.95552e-07 1.16261e-07
5.96709e-07 3.21573e-07 4.2463e-08
9.89586e-08 1.40847e-07 1.32761e-07
9.11389e-08 4.33466e-09 -5.48607e-08
2.27294e-06 3.83408e-06 -2.96023e-07
2.95253e-05 4.55535e-06 -2.03067e-06
-3.64011e-08 2.79501e-07 7.91722e-08
-6.99387e-08 3.79833e-07 1.04547e-07
2.59195e-05 4.32053e-06 -5.01555e-06
2.78212e-05 4.71761e-06 -5.18192e-06
4.83723e-08 9.41819e-08 -2.85013e-08
6.73885e-08 1.88245e-07 -3.84457e-08
1.32713e-05 3.37241e-05 6.14002e-05
-1.52013e-05 2.88775e-05 4.73571e-05
0.000213422 1.00803e-05 3.0108e-05
0.000192875 1.208e-05 3.12547e-05
-1.54683e-05 2.40299e-05 3.81272e-05
3.01612e-07 2.2446e-07 3.13469e-09
8.65203e-07 4.70238e-07 -1.4628e-07
1.05159e-07 1.80339e-07 -5.11482e-08
7.80058e-07 5.94788e-07 1.36191e-07
6.98336e-08 2.05846e-07 -6.11276e-08
8.25402e-08 1.73365e-07 3.55111e-09
4.23559e-07 -1.78022e-07 3.98668e-07
4.3529e-07 3.21109e-07 -2.73768e-07
4.00606e-07 4.0672e-07 -3.42334e-07
5.63933e-05 1.83227e-05 3.08904e-05
6.05674e-05 1.71756e-05 2.9881e-05
7.01061e-07 -3.53661e-08 4.7837e-07
5.20087e-07 2.94527e-07 1.72708e-08
-7.57123e-08 3.65198e-08 4.65731e-09
-1.05434e-07 5.79167e-08 2.12039e-08
2.97718e-05 4.52895e-05 6.73826e-05
7.40187e-06 4.08821e-05 5.70569e-05
7.54524e-07 4.28439e-07 2.76473e-07
9.24613e-07 3.55282e-07 2.89428e-07
2.02465e-07 1.61455e-07 8.82032e-08
3.2079e-07 3.78187e-07 1.68105e-07
1.02169e-07 9.88403e-08 -1.32075e-07
1.15749e-07 7.70199e-08 -1.12741e-07
1.24345e-09 1.03378e-08 1.58282e-09
8.13507e-10 1.0256e-08 2.02754e-09
8.82366e-08 6.33026e-08 -9.61911e-08
3.55413e-09 2.71889e-09 -8.9279e-09
-1.15401e-09 4.86878e-09 -5.58254e-09
3.07217e-05 1.39322e-05 -1.48064e-05
7.87987e-07 6.26657e-07 2.51503e-07
8.18098e-07 5.91079e-07 1.11654e-07
2.64461e-05 9.83835e-06 -1.07523e-05
2.97853e-05 1.38012e-05 -1.66308e-05
4.14279e-09 1.38503e-08 -2.99091e-08
4.33435e-10 7.43049e-09 -1.52853e-08
7.09146e-08 2.70558e-07 2.06208e-07
2.07055e-07 2.51219e-07 2.10534e-07
1.56748e-06 1.0995e-06 8.39763e-07
1.95145e-06 9.91817e-07 5.5167e-07
1.80904e-09 6.86931e-09 6.2471e-09
5.04499e-10 7.35442e-09 7.39706e-09
3.29409e-07 2.33739e-07 -4.96851e-08
5.15853e-10 2.91015e-09 6.01128e-09
-2.81743e-08 1.97998e-08 -1.00598e-08
-2.13746e-08 9.85207e-09 3.39863e-08
3.10841e-07 2.37504e-07 4.75817e-09
4.01589e-07 3.12319e-07 1.74155e-08
1.25939e-08 -1.67724e-09 2.76464e-08
-2.15578e-09 1.16227e-08 4.17138e-08
1.93125e-09 -5.43175e-09 -1.56571e-08
-1.97621e-06 1.9899e-07 7.06229e-07
5.19592e-08 -2.00471e-08 -1.82464e-09
-2.04632e-06 2.5092e-07 5.00471e-07
5.65114e-07 1.40427e-06 2.38808e-07
4.92906e-07 9.43703e-07 1.55433e-07
1.1506e-07 3.2206e-07 1.6911e-07
1.55652e-06 5.26987e-07 -2.07895e-07
4.76609e-07 2.12012e-07 1.42952e-07
4.88616e-07 2.96859e-07 1.41684e-07
1.58992e-07 3.4878e-07 1.63889e-07
-3.89834e-08 1.98115e-07 1.89663e-07
-1.79694e-08 2.09702e-07 1.84276e-07
4.25544e-08 1.14266e-08 -4.7598e-08
7.00927e-08 6.45442e-08 -5.27678e-08
2.24524e-07 1.23329e-07 -1.27677e-07
6.09836e-07 8.77696e-06 1.52812e-06
7.38799e-09 9.74332e-09 3.69813e-08
2.30926e-09 8.46008e-09 2.56127e-08
1.08267e-06 7.54084e-07 -1.73031e-07
8.1658e-07 1.07321e-06 -1.86454e-08
1.76892e-06 1.11677e-06 -5.82952e-07
1.28941e-06 8.81043e-07 -4.4886e-07
1.07014e-06 1.03048e-06 3.79011e-07
3.56573e-07 3.00856e-07 -3.49273e-09
3.29594e-07 2.67378e-07 7.55036e-08
2.81416e-07 2.22023e-07 -2.0836e-07
-1.18789e-08 1.95704e-08 8.52869e-09
-8.26361e-09 2.44231e-08 -9.12205e-10
-8.65867e-09 2.39865e-08 -3.04356e-09
7.39149e-08 2.89685e-08 -7.71725e-08
1.43345e-08 5.55476e-08 -8.47447e-08
7.47123e-08 1.13148e-07 -1.80898e-07
-1.07988e-08 6.55669e-08 -7.22455e-08
1.31546e-07 2.03786e-07 1.49953e-08
3.362e-06 5.91003e-06 -3.76506e-07
2.6045e-08 2.03123e-08 6.63682e-08
1.89866e-08 1.97611e-08 6.7872e-08
1.12637e-06 2.26683e-07 1.99336e-07
3.37183e-06 1.11395e-06 -3.58669e-08
1.41941e-07 2.49513e-07 -1.00988e-07
1.90542e-07 1.46704e-07 -9.63976e-08
1.59279e-07 5.88365e-07 4.55707e-08
-1.84295e-08 1.01858e-06 8.70052e-08
2.16048e-08 7.32488e-08 8.07848e-08
1.6145e-08 7.45041e-08 7.37073e-08
2.15167e-08 2.33636e-08 -4.254e-08
1.89681e-08 4.01833e-09 -1.70399e-08
1.60283e-08 3.39249e-09 2.32109e-08
1.81288e-08 1.23141e-08 3.92977e-08
1.52895e-08 1.76133e-08 -3.47701e-08
7.34217e-06 3.9766e-06 1.35462e-06
2.58446e-05 1.87684e-05 -1.51002e-05
-4.14652e-09 2.26494e-07 2.83099e-07
-1.18798e-07 1.83612e-07 2.21296e-07
8.20396e-07 1.62858e-06 -2.76666e-07
7.12947e-07 1.94149e-06 -2.35583e-07
0.0001557 1.18049e-05 2.96844e-05
0.000141178 1.37013e-05 3.56016e-05
2.39001e-05 1.63651e-05 -1.31444e-05
7.3649e-06 5.2871e-06 2.53913e-06
-8.57622e-07 6.89815e-07 -1.73632e-07
-8.8774e-07 5.88909e-07 -1.62304e-07
4.83567e-06 3.9431e-06 1.66702e-06
2.33026e-05 1.68437e-05 1.61132e-05
2.11355e-05 1.35858e-05 1.264e-05
1.35998e-09 -6.16006e-09 2.12096e-08
-2.09279e-08 1.53941e-08 -1.32563e-08
-1.39523e-07 6.70533e-08 6.36571e-08
1.98526e-05 1.36135e-05 1.16136e-05
-1.97838e-07 6.05246e-08 -4.39832e-08
-1.56054e-07 7.53331e-08 2.58667e-08
-4.5885e-07 2.84228e-07 -2.08205e-07
-2.8255e-07 1.61835e-07 -1.25128e-07
-1.93772e-07 7.57845e-08 -5.6508e-09
1.19268e-06 5.40676e-06 -2.25824e-07
9.22813e-09 5.14469e-09 -5.62789e-09
9.61938e-09 6.96799e-09 -1.02892e-08
-1.36153e-08 3.28394e-08 -1.66533e-09
7.77761e-09 2.31244e-08 1.745e-08
-5.07134e-09 1.38791e-08 9.55638e-09
-1.46059e-08 2.76453e-08 1.10587e-08
-1.80663e-08 2.4158e-08 6.27773e-09
-3.18183e-08 5.57135e-08 -5.70548e-09
4.43876e-08 3.18484e-09 -4.97108e-08
2.73273e-07 3.20252e-07 4.15408e-08
2.77079e-07 1.56833e-07 -1.06395e-07
2.0379e-07 1.92224e-07 1.86028e-08
-2.28695e-08 9.65441e-08 -1.33209e-08
9.79043e-07 4.61884e-07 3.92613e-09
-3.89248e-06 3.5332e-06 2.23902e-06
-2.74999e-06 3.61342e-06 2.20261e-06
-1.04659e-06 4.35168e-08 4.12903e-07
-9.07908e-07 -6.54072e-08 6.16711e-07
1.5261e-06 7.27232e-07 -3.89649e-08
1.39426e-06 2.62549e-07 4.73653e-07
-1.48984e-08 9.96213e-09 5.86182e-08
-4.95286e-07 -1.69632e-08 -4.54935e-07
-8.54739e-07 6.38408e-08 -4.14611e-07
-4.48409e-09 8.69007e-10 5.51253e-09
-1.19618e-08 6.94821e-09 1.34971e-08
-1.09628e-08 -5.98941e-10 -1.41074e-09
1.70726e-07 5.04291e-07 1.29358e-07
1.34268e-07 4.90876e-07 1.03097e-07
-2.69653e-08 2.22695e-08 2.14093e-08
3.48344e-07 2.43946e-07 -2.71498e-07
-5.00309e-08 2.74402e-07 1.27147e-07
-1.45996e-06 2.02585e-06 3.3617e-07
-1.38831e-06 1.93491e-06 2.72953e-07
-1.49641e-07 2.51248e-07 1.2766e-07
-8.50542e-08 1.05939e-06 -7.3398e-08
-2.27893e-08 1.12256e-06 -1.0756e-07
3.21764e-07 5.93795e-07 -3.75698e-08
-2.59679e-08 2.6931e-08 3.3595e-08
1.61942e-06 2.6155e-06 -9.13866e-07
1.83348e-06 1.88756e-06 -3.92633e-07
-1.03433e-07 2.09095e-06 -9.77189e-07
-3.28804e-08 3.78935e-09 -9.53083e-09
3.48429e-05 2.30451e-05 3.26172e-05
2.7699e-05 2.24279e-05 2.95306e-05
7.92367e-09 -3.41755e-10 -1.21679e-08
4.53109e-09 7.88095e-08 3.53932e-08
4.07439e-05 2.35441e-05 -3.00576e-05
1.68005e-08 1.35222e-07 6.60628e-08
2.53114e-08 2.82068e-08 5.70014e-08
4.18952e-08 2.3964e-08 5.71531e-08
3.68061e-07 3.74618e-07 -3.0793e-07
2.74545e-08 2.43008e-08 4.4918e-08
2.87903e-06 5.99535e-06 -1.07959e-06
3.74277e-06 4.17732e-06 -5.68497e-07
1.39485e-08 6.73392e-08 8.76508e-08
-1.26178e-08 7.30573e-08 2.09095e-08
-2.65231e-08 1.42617e-08 2.98057e-08
-1.39821e-08 5.45539e-10 8.52474e-09
7.13739e-06 1.51246e-06 -4.02829e-07
9.02136e-06 2.23371e-06 -3.49236e-06
-2.49882e-06 2.0934e-06 1.31408e-07
-1.63237e-07 3.7346e-07 4.37261e-08
2.39062e-06 9.50523e-07 -2.07173e-07
-6.2168e-08 8.19536e-08 8.23625e-09
-2.60984e-08 9.59723e-08 -5.06582e-09
-1.80221e-06 1.07237e-07 7.16117e-07
-2.04793e-06 4.72772e-07 -3.34062e-07
-9.07474e-07 2.19746e-07 -8.49357e-08
-1.0635e-06 1.31306e-07 -3.51712e-07
-7.38467e-08 9.93278e-08 -6.38375e-08
-4.26181e-07 3.62586e-07 3.37436e-09
4.94882e-07 1.65948e-07 -2.588e-07
4.94926e-07 1.8447e-07 -2.08627e-07
-4.47307e-07 3.73275e-07 8.45419e-09
6.89083e-07 4.94768e-06 7.61581e-08
1.76225e-06 4.23574e-06 1.77619e-08
1.18722e-06 3.78553e-06 1.76292e-07
1.35728e-08 1.5572e-08 5.60223e-08
7.42692e-06 1.59538e-06 2.56209e-07
8.25369e-06 1.76471e-06 -1.11939e-06
-1.48946e-06 6.52559e-06 -1.14034e-06
1.30242e-08 -2.12132e-09 1.55164e-08
1.9759e-06 4.30368e-06 6.30059e-08
3.68554e-06 7.89406e-06 4.15528e-06
4.73471e-06 5.89441e-06 2.57526e-06
8.806e-06 7.6652e-06 3.61813e-06
1.12207e-07 4.18465e-07 7.14991e-08
7.98737e-08 5.40419e-07 5.21919e-08
-3.21916e-07 1.55307e-06 1.77548e-07
-7.29993e-08 8.66741e-07 1.03429e-07
6.78023e-07 2.95752e-07 1.48216e-07
3.58434e-07 5.317e-07 1.08219e-07
1.91689e-06 6.4753e-07 -3.06415e-08
2.52094e-06 1.04458e-06 3.6651e-07
-3.81717e-08 1.12903e-09 3.00297e-08
-3.26499e-08 -2.41084e-09 1.57294e-08
7.56557e-08 1.86695e-08 -8.17817e-08
5.95934e-08 8.46991e-09 -4.9724e-08
-2.19504e-08 7.35561e-08 1.10835e-07
1.55064e-08 6.01751e-08 1.17851e-07
-1.55462e-08 6.21917e-08 1.03585e-07
2.67216e-07 1.01945e-07 2.03992e-07
3.99145e-07 2.43145e-07 -6.29883e-08
5.62722e-07 2.64938e-07 1.41698e-07
2.36369e-08 7.53911e-08 -8.22833e-08
1.28253e-08 7.67256e-08 -7.84006e-08
-4.05968e-08 5.81282e-07 -3.36687e-07
3.41153e-08 3.39028e-07 -2.01567e-07
-5.11469e-07 3.20783e-06 -5.77345e-07
-1.11043e-06 2.36488e-06 -4.32531e-07
-1.43743e-08 6.32922e-08 -5.61155e-08
2.08212e-07 -4.06844e-09 -4.11771e-08
-2.16538e-08 5.546e-09 1.25194e-08
1.34253e-08 3.32935e-08 -5.14791e-08
-1.48289e-06 3.9507e-06 -1.71622e-07
-8.0618e-08 3.72104e-07 -2.76287e-07
-1.4312e-07 3.22714e-07 -2.27523e-07
1.98143e-05 2.81744e-05 2.78009e-05
1.66044e-06 8.55566e-07 1.23861e-06
7.99523e-05 6.99058e-06 6.56678e-06
8.96662e-05 7.28186e-06 -4.65858e-06
7.34375e-05 7.4475e-06 -1.29529e-05
8.66805e-05 7.08544e-06 -1.53638e-06
1.85425e-06 8.37844e-07 1.16804e-06
1.90705e-05 2.35097e-05 2.24299e-05
1.78449e-05 2.34701e-05 2.06168e-05
4.55405e-08 2.91902e-08 -8.13236e-08
-2.55084e-08 5.75043e-09 -2.87738e-08
-1.2617e-08 4.74288e-09 -5.18079e-08
5.11889e-08 1.83877e-08 -6.75097e-08
2.31083e-08 8.529e-09 -3.31591e-08
1.39678e-07 2.452e-07 8.67607e-08
1.03265e-07 3.63452e-07 2.1737e-07
-6.52939e-07 8.30025e-08 2.47231e-07
-2.02272e-05 8.6136e-06 -8.48158e-06
-2.14172e-05 8.5607e-06 -8.9148e-06
-8.69402e-07 7.86192e-07 -2.18208e-07
2.13592e-07 2.0487e-07 -1.66398e-07
3.64151e-07 3.86286e-07 1.09833e-07
1.89293e-07 5.18724e-07 -2.75049e-07
1.78316e-07 2.17859e-07 -1.46352e-07
1.26842e-07 4.6887e-09 7.56974e-08
1.03952e-07 5.51815e-08 1.33084e-07
6.5514e-08 3.31542e-08 8.59841e-08
1.16184e-06 1.56823e-06 -1.06414e-07
1.28746e-06 1.76734e-06 -1.09214e-07
-4.01489e-05 1.70085e-05 -2.57872e-05
-9.60409e-08 2.04697e-07 4.57341e-09
3.44813e-08 6.88928e-09 2.2948e-08
-2.96332e-08 6.96325e-08 1.26418e-07
6.16872e-07 1.8875e-06 -1.99964e-07
6.45115e-07 1.3558e-06 -1.6668e-07
-5.44595e-08 9.23042e-08 -1.6778e-09
1.17448e-07 1.86782e-07 4.13777e-09
-1.07762e-07 1.63481e-07 -1.18906e-08
-1.63881e-05 1.19591e-06 -5.45869e-07
2.4571e-09 1.06815e-07 -5.16569e-08
-3.96977e-09 9.09916e-08 -4.52765e-08
-1.0044e-05 -4.46127e-08 -1.74433e-06
7.92649e-07 7.28592e-07 -2.52214e-07
-1.36719e-05 2.7756e-06 2.10078e-06
-1.12308e-08 1.02418e-07 1.93542e-09
1.62048e-06 6.0432e-07 1.25251e-07
1.79813e-06 4.77238e-07 4.6028e-07
2.44569e-09 6.74556e-08 -3.49293e-08
-9.22142e-09 7.96685e-08 2.41337e-08
1.14065e-07 2.03772e-07 -1.21568e-07
1.78588e-08 -1.05242e-08 -1.76467e-08
1.76428e-08 4.10434e-10 -3.66902e-08
4.46397e-07 4.62643e-07 -1.22244e-07
5.53972e-07 3.89537e-07 6.80453e-08
2.64136e-06 2.07172e-06 8.17842e-07
3.10473e-05 2.50214e-05 3.20467e-05
2.40145e-05 2.48223e-05 2.9693e-05
1.74912e-08 7.95073e-10 2.91886e-09
-1.56606e-08 1.99662e-10 -1.55532e-08
2.41534e-05 2.43761e-05 2.7225e-05
3.59346e-07 9.66622e-08 1.54375e-07
1.83565e-07 1.43803e-07 1.50926e-08
-2.17241e-08 5.5853e-08 -1.41671e-09
-1.06059e-07 2.06882e-07 1.85837e-07
-9.46126e-08 2.27205e-07 1.86652e-07
-4.50599e-07 3.48453e-06 2.95815e-07
-1.03167e-07 4.46429e-08 4.14196e-08
-2.47305e-08 1.23793e-07 9.76378e-08
-2.92829e-05 3.05388e-05 -5.06673e-05
-2.34485e-05 2.89147e-05 -4.38196e-05
-6.04842e-07 3.47604e-06 3.09107e-07
1.07778e-06 1.19966e-06 -2.31916e-07
-2.02732e-07 2.97074e-06 3.94201e-07
-2.60485e-09 -3.36811e-09 -2.29248e-08
3.40872e-07 7.78231e-07 -1.94501e-07
6.2897e-06 3.41663e-05 -3.34892e-05
4.10796e-07 5.54262e-07 -7.08586e-08
9.11489e-07 6.12693e-07 6.18216e-07
5.96017e-08 1.04999e-07 -5.29141e-08
-3.26946e-08 4.72269e-08 3.01624e-08
8.79866e-09 2.11386e-09 -3.36989e-09
-4.24265e-09 3.19104e-09 -2.06628e-08
-1.94476e-05 1.95354e-05 -1.92053e-05
-3.02734e-08 6.24416e-08 9.72763e-08
1.26774e-06 4.81839e-07 -1.59135e-07
-5.42712e-09 -2.64785e-09 2.16684e-09
6.95523e-08 1.34065e-07 1.46804e-07
2.24019e-08 9.4764e-10 2.29282e-08
1.39859e-05 2.3963e-05 -1.7693e-05
2.62388e-07 8.99536e-08 -1.05501e-07
1.37265e-05 2.45052e-05 -2.02055e-05
0.00031029 1.99031e-06 -4.6128e-05
0.000287183 5.19083e-06 -5.22488e-05
1.60845e-08 9.9556e-08 9.55347e-08
0.000168127 3.30053e-05 -9.41358e-05
1.4105e-08 1.12252e-07 9.18252e-08
-5.09202e-08 6.65029e-08 1.27532e-08
-5.93403e-08 4.83698e-08 -5.58959e-09
4.38764e-08 1.54676e-07 1.30667e-07
1.03676e-06 1.0701e-06 -3.39751e-07
1.46841e-08 4.50123e-10 -9.80724e-09
3.45233e-07 2.67026e-07 -8.87116e-08
3.42917e-05 3.33257e-05 -3.62906e-05
3.47132e-07 1.88685e-07 7.52223e-08
3.51708e-07 1.52121e-07 1.36976e-07
3.57677e-07 1.80325e-07 1.16091e-07
3.20686e-05 2.55312e-05 3.58389e-05
-9.06297e-08 4.89624e-08 -1.5946e-08
-7.94202e-08 4.19405e-08 -4.48331e-08
-1.78663e-07 1.04944e-07 -8.84237e-09
-3.1449e-07 2.6371e-07 -6.86572e-08
3.61811e-05 2.94128e-05 4.06833e-05
7.41648e-06 3.73326e-06 -1.06341e-06
3.05016e-06 4.52123e-06 -2.14308e-06
3.34751e-06 4.4896e-06 -1.96588e-06
0.000200315 7.52673e-06 -2.56478e-05
0.000187846 8.41434e-06 -2.36194e-05