# vtk DataFile Version 2.0
S, Created by Mohamad Ibrahim Cheikh
ASCII
DATASET UNSTRUCTURED_GRID
POINTS 10490 double
-223.577 20.3393 -34.7912
-223.728 23.2862 -32.7655
-130.49 -29.3 69.288
-194.383 -37.8828 -41.0231
-207.468 29.5105 40.0417
-235.875 27.4003 13.4741
-191.273 -39.7116 -41.083
14.3838 -3.10646 87.801
-191.058 39.2304 -41.6638
-193.398 36.9398 -42.4292
-251.146 3.21329 -3.38133
-251.007 5.46315 -0.715169
-204.325 29.3036 -42.1186
18.5767 -1.4708 87.7473
-201.227 30.3651 -43.1793
-151.288 68.7481 -14.6795
-148.484 69.9596 -12.2622
241.381 21.7608 -11.7085
240.378 24.3449 -8.7821
39.2386 72.981 -47.2151
43.0844 72.2623 -47.905
45.391 -3.17952 -86.4965
49.2555 -1.49641 -86.2829
-145.562 -45.492 -55.5011
-142.058 -46.9162 -55.4273
-191.797 -27.3624 49.9156
-189.472 -30.0409 49.4605
-64.3403 -67.8335 51.34
-66.4831 -66.0143 53.3383
-121.225 -41.6769 -64.868
-205.485 44.6101 24.1753
-208.428 41.8745 25.9203
-64.8742 -22.5552 81.9756
-61.2458 -23.9105 81.9332
44.2897 4.22125 86.5218
-201.398 -44.9171 27.5775
-51.1045 82.8214 -23.767
-47.8717 82.5228 -25.5619
-109.54 -78.4117 -11.2492
-105.514 -79.2425 -10.0786
-195.489 42.6441 35.3086
-200.946 -43.0027 30.8398
-54.4238 -15.2916 84.5431
3.49918 8.31922 87.5973
226.254 36.0727 -13.2455
223.493 37.2793 -15.4579
-146.98 22.4332 -67.7929
-143.82 23.7047 -68.1887
-167.022 -43.0222 -49.7767
-163.504 -43.4769 -50.8013
-215.266 -7.15635 -44.9382
-215.166 -3.16038 -45.4526
-105.622 -17.5882 77.9026
-104.085 -21.1257 77.2745
-247.96 -12.5215 7.72453
-247.222 -12.2234 10.5723
-226.223 -18.845 33.515
-129.022 -40.8333 -63.5497
238.447 4.07574 -27.6837
236.191 2.11815 -30.1595
30.6499 -3.69483 -87.2659
26.6807 -1.94971 -87.4817
-224.96 -22.5388 32.2513
-47.6611 -75.8711 41.3456
-235.553 -26.7704 15.3058
-110.073 51.2826 -60.2556
-237.92 -25.2886 13.1992
-16.8474 -1.40662 -87.7911
-20.0175 -3.96305 -87.6313
25.2953 7.61827 -87.2217
27.3235 3.78028 -87.3974
25.422 1.76843 -87.5314
45.9551 -6.29595 -86.2891
-242.159 -16.9742 16.6267
249.587 -5.36881 -9.40941
249.11 -2.30245 -11.8809
-169.136 48.172 43.8302
30.4702 -13.4606 -86.3084
-165.508 47.9451 45.7332
-244.371 -14.4427 14.9733
243.986 6.92813 20.1945
244.544 3.56455 20.2422
-218.53 -34.2525 26.9086
-142.145 -69.4108 21.2697
-139.63 -70.7397 18.7867
-221.095 -32.0561 27.0485
-157.97 -59.7994 33.3592
-205.035 32.4669 39.2813
-154.318 -61.3633 32.6032
21.3227 7.43635 87.3673
-119.038 18.5562 75.2649
-116.372 20.6483 75.2306
25.5776 -59.0297 64.6483
29.1118 -57.6573 65.6953
-134.474 55.0935 -49.9475
-136.746 52.5962 -51.8484
-177.086 57.9233 23.4422
-176.677 59.4004 19.8488
-69.5055 65.5693 -53.4153
-62.7223 16.9573 -83.5153
-66.342 16.9265 -83.1784
-65.9863 67.1497 -51.9792
124.447 57.7513 50.127
121.013 58.3581 50.4525
-132.441 -69.8469 26.794
-132.815 -68.0008 30.9879
-188.85 35.1276 46.2997
-185.103 37.3002 46.4527
-232.725 13.1753 -30.6504
-59.1158 75.5771 40.0531
-60.4254 77.0871 36.8044
-231.927 16.7995 -29.6014
-175.27 -46.9576 -42.1659
-178.783 -11.2247 60.8664
-181.795 -8.3736 60.2297
-195.811 53.7584 12.6424
-198.362 52.072 14.6689
-195.137 -6.4022 -55.1459
-196.108 -2.36183 -55.0448
-155.75 25.0865 64.3796
-159.445 22.4993 64.2284
-196.21 -54.5515 -7.3988
-193.182 -56.048 -5.79639
-90.7382 75.3438 -32.5468
-86.7346 75.7528 -32.9314
-39.2321 -78.9668 -36.3292
-42.7329 -77.6536 -38.605
-35.6872 20.7158 -84.6105
-119.248 -59.0754 -50.1311
-116.053 -58.3874 -51.8264
-103.565 -58.9095 54.4107
-107.459 -57.2169 55.2854
-176.042 46.9183 -41.8147
26.8982 14.0924 -86.3529
23.7559 15.8356 -86.1634
-175.593 44.5889 -44.5078
-89.4415 -39.5828 72.0957
-93.3101 -38.4407 72.1134
-1.70805 -75.0114 -46.0101
2.631 -75.248 -45.6168
-158.02 -33.1932 -59.8755
-154.736 -36.6301 -58.914
25.058 73.1627 48.1076
27.6064 71.1759 50.8397
-166.543 38.8292 53.2965
-168.959 36.458 54.0351
126.636 60.2659 46.3533
124.978 62.2382 44.2506
55.9056 20.2697 83.3696
-158.137 12.6606 67.2464
-155.542 9.86073 68.4454
-43.2964 74.0432 -45.0788
70.8601 53.1197 -65.632
-40.5328 75.6878 -42.5935
222.064 -27.8282 -30.5326
225.276 -26.0123 -29.2253
-15.8718 80.2873 -35.5963
-18.7843 79.0789 -38.0437
247.477 -7.06407 13.9944
245.671 -9.07238 16.5073
-182.887 19.8628 57.0479
-181.346 22.7066 56.5871
-54.9737 69.1104 50.9682
-52.6994 70.977 48.644
-221.67 26.3882 -32.1204
245.288 -12.7014 14.713
-123.333 -44.6572 -62.3493
-128.466 -46.8986 -59.3632
-126.779 -44.2463 -61.7935
-219.064 -11.0514 41.792
-206.361 49.8833 -6.47957
-208.045 48.5212 -9.51705
-173.561 -35.1372 53.1164
-196.132 -34.8661 -42.6466
-56.8079 10.6942 85.0561
-99.0126 80.7495 4.82432
-149.825 -21.4641 67.3425
-153.216 -21.7085 66.3224
-105.206 79.8993 2.23823
-102.826 80.1316 5.33443
-208.259 -1.82402 -49.3016
-211.701 -0.423699 -47.506
6.82174 77.0609 -42.4255
8.18572 75.2651 -45.5077
-13.5648 86.2349 -16.8821
-17.5866 85.5675 -19.6043
11.9405 74.6542 -46.4035
-209.314 34.911 -34.0773
-209.416 37.4888 -31.1354
-243.668 12.2931 -17.9917
-205.984 40.1 -30.6812
-237.951 16.7324 23.064
-240.123 13.538 22.3945
-198.665 34.6921 41.3331
-44.0848 -51.8556 -69.4051
-47.9304 -52.1726 -68.8531
-63.724 78.7226 -32.3974
-60.5454 79.6931 -30.7281
-198.894 37.6903 38.4736
-195.372 39.9888 38.3625
193.192 51.8483 -22.051
191.206 51.6132 -24.5773
-17.1341 73.3378 -48.2662
-16.0647 71.5482 -50.924
-160.704 -8.6713 67.1338
-158.247 -5.13921 68.2031
-159.177 -12.1825 67.0339
-155.582 -13.9442 67.7202
-181.216 -39.3668 -46.6234
-187.067 -34.8932 -47.3514
234.201 -8.198 31.0077
231.367 -8.83948 33.3482
-185.723 -37.8045 -45.7367
-220.423 -36.3319 -21.8075
-223.2 -33.1947 -23.2995
-73.7767 69.8255 46.9255
-199.239 43.3793 -31.6579
-202.402 40.5242 -32.9578
-78.589 72.1089 42.2864
-74.6964 71.9947 43.3319
-199.862 -47.1003 -25.2007
-196.405 -49.1626 -24.5823
-156.237 -38.5598 57.1718
-155.213 -34.6016 59.9772
-162.889 56.2742 -36.4526
-159.736 58.1014 -35.2752
245.94 -16.0777 8.95242
246.756 -13.0533 10.9096
-202.187 25.1268 -45.9103
246.469 -16.6405 5.45942
-222.675 -40.7292 -3.81039
-219.564 -42.6763 -4.53572
-225.908 36.4572 -12.9114
-224.081 36.2173 -16.8753
-228.9 -34.8682 10.6503
-231.376 -33.5771 7.89197
-225.472 -37.7617 9.69447
119.546 74.8287 19.8739
-172.163 -51.1025 -38.7774
115.351 75.6445 19.8212
47.9215 12.1846 -85.5241
51.5078 10.7826 -85.4571
-180.22 -22.1712 57.2364
-179.925 52.3288 -32.2839
-165.446 0.850342 66.2727
-168.569 2.82887 65.2463
-181.018 -17.413 58.5581
36.4518 -59.7522 63.3325
37.7863 -57.2052 65.5497
-159.984 -59.9392 -31.9014
-182.766 -21.7972 -56.3851
-184.309 -18.0288 -57.0965
-11.927 15.1845 -86.5795
-188.59 -54.9977 19.102
-192.466 -53.121 19.6705
-145.924 9.3457 -71.061
-143.727 12.1534 -71.1843
-174.344 52.4362 35.6803
-173.413 50.7302 38.5839
-187.164 39.7312 -43.3201
-231.493 33.5003 -7.79802
-229.088 35.9739 -4.95845
-234.9 30.8743 -5.94386
241.404 7.72117 23.4446
239.892 10.8371 24.1019
240.609 13.4022 21.8297
-138.878 -61.8297 -39.4938
-138.123 -60.1619 -42.2945
-141.494 -58.2489 -43.5882
-200.351 -41.1635 -33.6919
-218.714 20.1184 -38.5057
-52.6388 9.12336 85.5659
-56.6793 -81.1827 27.569
-60.1939 -81.4605 25.7796
-152.593 56.1728 41.688
-153.336 58.0711 38.6415
-189.411 -9.89458 -57.0413
-186.063 -8.87767 -58.5381
64.9146 -8.70127 84.5717
67.8937 -7.06106 84.4381
-196.835 -37.2185 40.1914
-200.414 -34.6088 40.3571
-180.668 -48.2452 -37.6851
-174.531 -52.0916 -36.0706
-215.618 -38.5089 23.8564
-218.655 -36.4147 23.7609
-178.254 -50.9815 -35.4221
-121.458 47.9973 -60.284
-70.9241 59.8793 59.5198
26.871 -68.2977 54.6903
24.8069 -66.5853 56.8775
-87.183 -8.56816 -82.0976
-84.0043 -6.25731 -82.7097
-29.5169 86.0704 -15.1399
-33.4167 85.6218 -16.6191
-74.7583 60.352 58.4585
-117.523 49.0528 -60.3891
67.0798 -10.9576 -84.1013
63.3301 -11.5654 -84.3754
-122.257 44.7903 -62.5131
-75.796 64.3677 -53.8278
-79.3501 64.494 -53.0439
-210.937 -46.4387 -11.8317
-207.911 -47.2772 -14.7163
-70.3856 -66.9045 51.5873
-82.1226 61.995 -55.4521
181.002 57.5736 -20.4514
187.79 54.7437 -20.7265
-57.9933 -57.7647 -63.2098
-60.2525 -59.947 -60.876
185.027 56.507 -18.9619
-52.2012 5.00464 85.938
170.803 -60.9399 -21.4146
166.658 -61.8362 -22.7993
-242.161 -11.2302 20.9366
-241.443 -7.7141 23.3973
231.622 25.8612 -22.5152
229.371 25.1807 -25.8602
225.984 27.6879 -26.9257
-235.385 -18.9687 -24.5116
-234.849 -16.6286 -26.7386
-226.063 27.1677 -27.371
-222.947 28.4639 -29.1269
-220.765 31.3791 -28.1504
-250.634 -7.29352 -0.17866
-176.034 45.3136 43.5525
58.6131 51.312 -68.487
59.7117 48.4846 -70.404
128.093 68.3814 32.545
131.587 68.3039 30.9625
-176.912 47.626 40.5456
-181.016 46.7581 39.3194
18.7047 -86.4178 15.2685
142.027 69.364 -21.5178
141.083 68.3972 -25.078
23.2384 -86.1703 15.8922
181.098 -44.0244 42.3151
25.6366 -86.6619 12.3796
-189.023 21.651 -53.8592
-189.444 17.9047 -55.0408
-212.327 -45.0142 14.0797
-120.844 -47 -61.2137
-24.3214 -37.2696 79.2626
52.296 18.5638 -84.0509
55.8109 16.7756 -84.15
-25.2928 -41.1189 77.2975
-119.139 -6.52033 -77.2251
-115.758 -7.73541 -77.7407
-200.045 16.4814 50.7242
-215.148 -43.2639 14.3206
-153.407 33.0809 61.3875
-156.828 31.3867 61.2185
-157.698 28.2399 62.4646
-79.968 -83.4309 0.60281
-62.6517 73.2744 -43.5235
-62.0629 71.2165 -46.9108
-79.8044 -83.3553 -4.02124
-209.642 -18.6805 44.8805
-59.3212 71.8482 46.3788
-205.671 -19.6724 46.6704
-191.283 -46.3881 33.3544
-190.153 -45.0074 35.937
-195.127 47.3298 29.0246
-192.216 -42.6378 37.451
-97.6465 19.9037 78.6161
-94.0402 21.0519 78.8549
-195.846 -41.8715 35.9846
-247.68 -8.81104 12.4836
188.064 -42.0216 40.596
184.93 -44.2656 39.9695
-127.074 75.5287 7.90139
-123.415 76.0709 9.6158
48.8323 1.72113 86.3081
130.444 15.5986 -73.6034
-179.672 46.5378 -40.3227
198.594 13.1815 52.3605
200.49 9.43509 52.2852
113.324 74.8992 23.7029
109.578 75.3568 24.3982
149.548 63.7465 -30.6967
145.716 65.3564 -29.5459
-166.876 -45.6685 -47.4236
129.837 19.3622 -72.8369
-209.796 43.7098 -21.0891
-206.936 46.1333 -19.312
126.462 20.2146 -73.3306
-61.8814 -0.25278 85.2943
-59.1553 2.65902 85.4898
[...]
POINT_DATA 10490
VECTORS F double
1.36878e-08 3.11119e-08 7.41911e-09
1.27048e-07 8.98848e-08 -4.23289e-08
1.47053e-07 7.26853e-07 3.41273e-07
5.78851e-08 -7.44403e-09 -2.67058e-08
2.89787e-07 2.58076e-07 -6.37359e-09
1.82364e-07 1.94925e-07 -5.5383e-09
8.43741e-08 2.59315e-08 -7.31598e-08
-1.93839e-06 2.38131e-06 1.23131e-07
9.46606e-07 7.16735e-07 1.43417e-07
1.02832e-06 6.22957e-07 -3.15002e-08
1.22261e-08 7.38274e-08 -4.10195e-08
1.07391e-08 5.78292e-08 -1.96446e-08
1.02345e-07 3.53881e-07 1.85421e-07
-2.38047e-06 3.9465e-06 1.27852e-07
1.429e-07 1.21932e-07 4.21262e-09
3.37408e-06 6.90608e-07 -1.02306e-06
4.33326e-06 7.98012e-07 -1.87129e-06
-1.11854e-08 2.14721e-08 1.16782e-08
-1.32005e-08 2.08354e-08 1.35215e-08
-2.77308e-05 6.21778e-06 6.78942e-06
-2.70242e-05 4.9378e-06 4.47282e-06
-3.15436e-06 1.84682e-06 -2.7055e-07
-2.86919e-06 1.3587e-06 -2.24094e-07
3.1215e-08 2.18692e-07 -1.89276e-07
5.78929e-08 2.46042e-07 -2.26427e-07
1.67248e-08 1.69567e-07 1.0082e-07
1.36385e-09 1.44788e-07 8.85801e-08
-4.60346e-08 1.95983e-07 2.51881e-07
-1.93528e-07 1.51785e-07 1.58324e-07
2.51835e-07 2.11227e-07 -1.93331e-07
5.66322e-07 2.57097e-07 1.1492e-07
3.77882e-07 2.81613e-07 -8.29302e-08
1.504e-07 3.02099e-06 8.45784e-07
-2.62042e-07 1.66601e-06 4.62209e-07
-2.04875e-06 3.07849e-06 -2.17959e-08
1.51008e-08 2.89955e-08 6.07281e-08
8.48491e-05 1.513e-05 3.03865e-05
9.18897e-05 1.76561e-05 3.59306e-05
4.01052e-08 4.14289e-10 -5.0704e-08
3.46525e-08 -2.77752e-09 -2.25801e-08
6.45478e-07 3.51856e-07 1.25809e-08
2.794e-08 2.95632e-08 6.35122e-08
2.89347e-07 2.86916e-06 5.41759e-07
-1.59052e-06 3.75305e-06 -3.48652e-07
-2.22214e-08 1.35222e-08 -9.64278e-09
-3.77092e-08 3.4371e-08 1.61409e-08
1.28106e-06 8.74205e-07 -5.07619e-08
1.12712e-06 1.59881e-06 2.64747e-07
-5.16948e-08 1.0363e-07 -6.83314e-08
-4.49733e-08 1.16542e-07 -8.20177e-08
5.35166e-08 1.46466e-07 -5.471e-08
7.01241e-08 1.5546e-07 -5.14515e-08
9.8447e-07 2.36903e-06 6.98278e-07
1.07312e-06 2.29732e-06 8.05021e-07
-4.02238e-08 9.83481e-08 1.34121e-09
-2.82327e-08 7.42863e-08 5.05898e-09
6.02299e-08 9.80458e-08 1.04904e-07
1.79137e-07 3.52196e-08 -6.71573e-08
-1.816e-08 1.2245e-08 -1.73474e-08
-1.71568e-08 7.44651e-09 -1.59271e-08
-2.4963e-06 2.97069e-06 -2.33121e-07
-2.28729e-06 3.85033e-06 -1.71219e-07
1.39574e-08 8.7747e-08 7.32414e-08
-3.94981e-08 5.74581e-08 9.98644e-08
-1.1012e-08 1.25906e-08 1.27132e-09
1.15603e-05 6.02086e-06 2.53876e-06
-2.09596e-08 3.7228e-08 2.50731e-08
-3.61334e-07 4.78222e-06 -6.81349e-08
1.93362e-07 3.78907e-06 -1.76767e-07
-8.45195e-07 6.58748e-06 5.45366e-07
-3.24322e-06 5.18902e-06 1.00308e-07
-2.21811e-06 4.0252e-06 2.45109e-09
-1.28176e-06 2.12857e-06 -2.38882e-07
5.79445e-09 4.53189e-08 5.65991e-08
2.63612e-09 1.28142e-08 1.25568e-09
-3.28697e-09 4.60164e-09 -9.32506e-09
3.78417e-07 3.8274e-07 -2.41869e-07
9.52394e-07 1.60255e-06 -2.08767e-07
5.29798e-07 5.60275e-07 -3.52629e-07
1.22367e-09 2.91215e-08 3.05362e-08
-1.01082e-08 1.08153e-08 1.12412e-08
-3.11075e-09 1.11127e-08 2.64195e-09
2.03715e-08 1.57666e-08 4.03256e-08
2.74909e-08 6.44105e-09 4.35114e-08
1.42492e-08 3.61311e-09 2.65702e-08
1.68413e-08 1.83452e-08 3.85951e-08
4.01812e-08 3.45817e-08 8.52864e-08
2.42737e-07 2.97736e-07 -9.09661e-08
4.17363e-08 2.95994e-08 7.98959e-08
-4.42121e-07 4.77661e-06 -3.93354e-07
2.23597e-06 2.77921e-06 -2.52239e-07
2.07659e-06 3.23843e-06 -4.95568e-07
-2.49944e-08 2.02831e-07 1.86414e-07
-6.93785e-08 2.98187e-07 2.65467e-07
4.76927e-06 2.89175e-06 1.61763e-06
5.70024e-06 2.44689e-06 6.41564e-07
4.47991e-07 3.39308e-07 -4.24061e-07
1.29071e-06 5.76775e-07 -3.19498e-07
2.48557e-05 1.82581e-05 1.84527e-05
1.98533e-06 1.97598e-06 2.1866e-07
1.74609e-06 6.94425e-07 -2.91939e-08
2.39598e-05 2.04469e-05 2.26905e-05
-1.03386e-06 3.32866e-07 -6.92476e-08
-1.0938e-06 3.83691e-07 -1.22608e-07
4.1652e-09 1.35849e-08 3.79347e-08
1.66267e-10 1.88287e-08 4.14039e-08
1.0225e-06 5.45018e-07 9.71051e-08
1.0143e-06 6.67335e-07 -4.10187e-08
6.07831e-08 8.49928e-08 -1.9969e-08
4.44372e-05 2.08394e-05 -3.12923e-05
4.46951e-05 2.0627e-05 -3.42192e-05
3.51135e-08 8.76079e-08 1.6038e-08
4.46156e-08 -2.27829e-08 2.66631e-09
4.5425e-07 3.88078e-07 2.34923e-07
2.28068e-07 1.45002e-07 1.04439e-07
6.69989e-07 3.6431e-07 -2.78657e-07
8.0523e-07 3.84075e-07 -3.02705e-08
-5.96118e-09 1.17825e-07 -1.10973e-08
1.25381e-07 1.62846e-07 -6.16762e-08
4.05368e-07 2.38336e-06 -8.08646e-07
1.2616e-06 9.6607e-07 4.50225e-08
8.19541e-09 -2.03178e-09 -1.16286e-08
-1.21219e-09 -7.23166e-10 1.1942e-08
2.58268e-05 7.14983e-06 7.73591e-06
2.70952e-05 8.85488e-06 1.16319e-05
-4.4326e-08 5.07001e-08 -1.04343e-07
-3.00682e-08 6.55618e-08 -1.27802e-07
1.03058e-06 9.64515e-06 2.30826e-06
1.28566e-07 1.57625e-07 -2.2319e-07
1.25648e-07 1.83076e-07 -2.40699e-07
4.28237e-08 1.53512e-07 1.76184e-07
9.04353e-08 2.46134e-07 2.76253e-07
2.37778e-06 7.33181e-07 -4.02932e-07
-5.40046e-07 6.12302e-06 9.78657e-07
-2.25033e-06 3.54752e-06 5.76025e-07
7.41645e-07 1.11438e-07 -2.46589e-07
2.59078e-07 5.95903e-07 3.6652e-07
3.17309e-07 9.10569e-07 5.35655e-07
-6.38657e-08 8.30172e-08 -1.35054e-07
-6.26353e-08 6.02192e-08 -9.97775e-08
1.25253e-07 2.3708e-07 -1.71901e-07
2.7465e-08 1.49829e-07 -1.01989e-07
-3.65305e-05 1.64325e-05 -2.26611e-05
-3.46325e-05 1.6717e-05 -2.11014e-05
2.66344e-06 1.18554e-06 1.55247e-07
2.32212e-06 1.35892e-06 -2.79177e-08
-5.66229e-07 1.37194e-07 1.10258e-08
-1.38527e-06 1.38922e-08 4.59471e-07
-1.14134e-06 1.03017e-06 -1.5676e-07
9.69333e-07 1.03636e-06 8.39616e-08
2.65981e-07 2.777e-07 3.39947e-08
4.49928e-05 3.1548e-05 4.65275e-05
-5.7968e-06 2.9798e-06 1.64549e-06
5.30117e-05 2.87291e-05 4.48745e-05
-2.30383e-09 7.63958e-09 -9.0152e-09
-1.47367e-09 5.99989e-09 -6.73159e-09
0.000113761 3.68434e-05 7.68894e-05
0.000101251 4.08377e-05 7.87658e-05
-8.37017e-10 -4.90246e-10 1.56518e-09
-1.39408e-09 6.83498e-10 2.91305e-09
3.87473e-07 5.57565e-07 -4.2051e-08
3.35444e-07 6.1185e-07 -1.13902e-07
3.86192e-05 2.93601e-05 -3.4711e-05
4.15245e-05 2.85805e-05 -3.61943e-05
1.98963e-07 7.81753e-08 -1.03884e-07
-4.18794e-09 -1.7086e-09 7.07242e-09
2.43554e-07 1.92778e-07 -1.9706e-07
1.19892e-08 1.29129e-07 -1.05192e-07
2.26384e-07 3.63538e-08 -8.28955e-08
1.19513e-09 1.3522e-07 3.6524e-08
5.50736e-07 2.94024e-07 1.16147e-07
5.9372e-07 3.20029e-07 4.26061e-08
9.92605e-08 1.40982e-07 1.3297e-07
9.10618e-08 4.20102e-09 -5.47085e-08
2.27855e-06 3.81042e-06 -2.9277e-07
2.91275e-05 4.4948e-06 -2.04376e-06
-3.62701e-08 2.79394e-07 7.91722e-08
-6.97027e-08 3.79437e-07 1.04482e-07
2.5558e-05 4.25682e-06 -4.87773e-06
2.74553e-05 4.64961e-06 -5.05093e-06
4.80965e-08 9.393e-08 -2.83489e-08
6.71051e-08 1.87789e-07 -3.82866e-08
1.72068e-05 3.42153e-05 6.24869e-05
-1.27881e-05 2.9298e-05 4.81744e-05
0.000209748 9.75635e-06 2.92005e-05
0.000189848 1.16199e-05 2.98653e-05
-1.29467e-05 2.47509e-05 3.94116e-05
3.00302e-07 2.23511e-07 3.1467e-09
8.6093e-07 4.67892e-07 -1.45577e-07
1.05004e-07 1.80184e-07 -5.09955e-08
7.76137e-07 5.91788e-07 1.35505e-07
6.98166e-08 2.05802e-07 -6.11177e-08
8.25494e-08 1.73327e-07 3.58628e-09
4.22497e-07 -1.77026e-07 3.97204e-07
4.33443e-07 3.19412e-07 -2.72354e-07
3.9898e-07 4.04505e-07 -3.40513e-07
5.57623e-05 1.80182e-05 3.0354e-05
5.991e-05 1.68841e-05 2.93363e-05
6.98906e-07 -3.49904e-08 4.76632e-07
5.18464e-07 2.93614e-07 1.72089e-08
-7.48446e-08 3.5916e-08 4.16674e-09
-1.04566e-07 5.73325e-08 2.08024e-08
3.12894e-05 4.4959e-05 6.69528e-05
8.67808e-06 4.06177e-05 5.67327e-05
7.54072e-07 4.27182e-07 2.76174e-07
9.23492e-07 3.54314e-07 2.89033e-07
2.03123e-07 1.6091e-07 8.82956e-08
3.21188e-07 3.77296e-07 1.68031e-07
1.01968e-07 9.86759e-08 -1.31841e-07
1.15489e-07 7.68276e-08 -1.12473e-07
1.2912e-09 1.04162e-08 1.56017e-09
8.63427e-10 1.03058e-08 1.99769e-09
8.80775e-08 6.31638e-08 -9.59977e-08
3.55983e-09 2.67128e-09 -8.85669e-09
-1.15535e-09 4.81379e-09 -5.50188e-09
3.03523e-05 1.38115e-05 -1.47091e-05
7.8404e-07 6.23275e-07 2.49926e-07
8.13884e-07 5.88002e-07 1.11052e-07
2.61507e-05 9.77078e-06 -1.07113e-05
2.94458e-05 1.36849e-05 -1.65225e-05
4.13736e-09 1.38153e-08 -2.98383e-08
4.39114e-10 7.40776e-09 -1.52431e-08
7.10642e-08 2.70733e-07 2.06374e-07
2.07363e-07 2.51315e-07 2.10687e-07
1.56054e-06 1.09342e-06 8.34227e-07
1.94275e-06 9.85683e-07 5.46438e-07
1.83462e-09 6.95422e-09 6.31583e-09
5.15849e-10 7.4421e-09 7.47412e-09
3.28134e-07 2.33013e-07 -4.93944e-08
5.2438e-10 2.94605e-09 6.08153e-09
-2.82384e-08 1.98422e-08 -1.00468e-08
-2.14257e-08 9.86837e-09 3.4126e-08
3.09797e-07 2.36807e-07 5.02581e-09
4.0014e-07 3.11329e-07 1.765e-08
1.26718e-08 -1.70717e-09 2.77518e-08
-2.12712e-09 1.16369e-08 4.18793e-08
1.97066e-09 -5.46727e-09 -1.5689e-08
-1.93078e-06 1.93966e-07 6.9163e-07
5.19613e-08 -2.0135e-08 -1.70863e-09
-1.99987e-06 2.44729e-07 4.90959e-07
5.62621e-07 1.4119e-06 2.39749e-07
4.90347e-07 9.49777e-07 1.56023e-07
1.15209e-07 3.21962e-07 1.69129e-07
1.54494e-06 5.24452e-07 -2.04082e-07
4.76482e-07 2.11804e-07 1.42914e-07
4.88453e-07 2.96316e-07 1.41654e-07
1.59168e-07 3.4864e-07 1.63912e-07
-3.90729e-08 1.97936e-07 1.89499e-07
-1.80793e-08 2.0947e-07 1.84081e-07
4.25544e-08 1.13897e-08 -4.7527e-08
6.99346e-08 6.43448e-08 -5.26274e-08
2.23899e-07 1.22916e-07 -1.27299e-07
5.93488e-07 8.71527e-06 1.51849e-06
7.44222e-09 9.77244e-09 3.71306e-08
2.34621e-09 8.47926e-09 2.57101e-08
1.0749e-06 7.49454e-07 -1.71678e-07
8.13219e-07 1.06416e-06 -1.93419e-08
1.75593e-06 1.10711e-06 -5.76569e-07
1.28267e-06 8.74255e-07 -4.4367e-07
1.06401e-06 1.02436e-06 3.76672e-07
3.55724e-07 3.00211e-07 -3.17294e-09
3.28758e-07 2.66748e-07 7.56658e-08
2.80739e-07 2.21501e-07 -2.07788e-07
-1.19613e-08 1.97156e-08 8.58628e-09
-8.28919e-09 2.46126e-08 -9.6729e-10
-8.67572e-09 2.41456e-08 -3.11843e-09
7.38053e-08 2.88575e-08 -7.69521e-08
1.4164e-08 5.54284e-08 -8.45077e-08
7.44914e-08 1.12937e-07 -1.80527e-07
-1.08259e-08 6.55522e-08 -7.22078e-08
1.31041e-07 2.03183e-07 1.50312e-08
3.35694e-06 5.8653e-06 -3.72541e-07
2.61908e-08 2.03721e-08 6.65838e-08
1.91163e-08 1.98277e-08 6.81166e-08
1.1327e-06 2.31491e-07 1.95691e-07
3.34167e-06 1.10427e-06 -3.60465e-08
1.41363e-07 2.48799e-07 -1.00628e-07
1.89825e-07 1.4613e-07 -9.60314e-08
1.51077e-07 5.83388e-07 4.58255e-08
-2.41498e-08 1.0082e-06 8.66884e-08
2.1673e-08 7.33966e-08 8.09628e-08
1.6199e-08 7.46293e-08 7.38471e-08
2.15223e-08 2.32647e-08 -4.24155e-08
1.89826e-08 3.93392e-09 -1.69268e-08
1.6112e-08 3.37686e-09 2.32801e-08
1.82226e-08 1.23183e-08 3.94097e-08
1.5315e-08 1.75337e-08 -3.46714e-08
7.23305e-06 3.93775e-06 1.35101e-06
2.56467e-05 1.85868e-05 -1.49574e-05
-4.2343e-09 2.26853e-07 2.8355e-07
-1.19229e-07 1.83781e-07 2.21516e-07
8.12964e-07 1.61707e-06 -2.74465e-07
7.04944e-07 1.92959e-06 -2.33641e-07
0.000153417 1.15226e-05 2.88855e-05
0.000139139 1.33565e-05 3.4559e-05
2.37184e-05 1.62028e-05 -1.30141e-05
7.2622e-06 5.20928e-06 2.50106e-06
-8.56552e-07 6.90107e-07 -1.73558e-07
-8.87106e-07 5.91347e-07 -1.62574e-07
4.77124e-06 3.90425e-06 1.65494e-06
2.29951e-05 1.66255e-05 1.59166e-05
2.08618e-05 1.34315e-05 1.25099e-05
1.37287e-09 -6.20553e-09 2.13606e-08
-2.09852e-08 1.54085e-08 -1.32e-08
-1.3982e-07 6.71513e-08 6.37338e-08
1.9596e-05 1.34525e-05 1.14867e-05
-1.9557e-07 5.92772e-08 -4.50373e-08
-1.54229e-07 7.42158e-08 2.49383e-08
-4.57262e-07 2.82833e-07 -2.07106e-07
-2.81828e-07 1.6108e-07 -1.24472e-07
-1.91735e-07 7.46123e-08 -6.71234e-09
1.20132e-06 5.36582e-06 -2.23138e-07
9.32947e-09 5.19263e-09 -5.66527e-09
9.72449e-09 7.02744e-09 -1.03577e-08
-1.35955e-08 3.27972e-08 -1.66108e-09
7.82502e-09 2.30486e-08 1.74841e-08
-5.04912e-09 1.38973e-08 9.60352e-09
-1.465e-08 2.77805e-08 1.11435e-08
-1.81174e-08 2.4224e-08 6.29387e-09
-3.18678e-08 5.56971e-08 -5.63397e-09
4.4416e-08 3.09169e-09 -4.96836e-08
2.72501e-07 3.19483e-07 4.15623e-08
2.76237e-07 1.56348e-07 -1.06079e-07
2.0305e-07 1.91623e-07 1.86442e-08
-2.28866e-08 9.66209e-08 -1.33037e-08
9.75691e-07 4.58281e-07 6.00941e-09
-3.9288e-06 3.5696e-06 2.26278e-06
-2.78109e-06 3.65058e-06 2.22524e-06
-1.02604e-06 4.16135e-08 4.06991e-07
-8.90416e-07 -6.42921e-08 6.05134e-07
1.51787e-06 7.21392e-07 -3.65175e-08
1.38714e-06 2.61188e-07 4.71248e-07
-1.4986e-08 1.00222e-08 5.89741e-08
-4.89865e-07 -1.85988e-08 -4.55816e-07
-8.4652e-07 6.13543e-08 -4.15721e-07
-4.52457e-09 8.74644e-10 5.55054e-09
-1.19783e-08 6.93596e-09 1.34921e-08
-1.10195e-08 -5.96166e-10 -1.38451e-09
1.69035e-07 5.01633e-07 1.29021e-07
1.33529e-07 4.8834e-07 1.02589e-07
-2.70366e-08 2.23391e-08 2.1501e-08
3.46842e-07 2.42888e-07 -2.7032e-07
-4.97037e-08 2.73484e-07 1.26726e-07
-1.44978e-06 2.03227e-06 3.3842e-07
-1.37978e-06 1.93686e-06 2.74082e-07
-1.49416e-07 2.50536e-07 1.27289e-07
-8.41199e-08 1.05167e-06 -7.29081e-08
-2.21771e-08 1.11487e-06 -1.06892e-07
3.21506e-07 5.92407e-07 -3.72505e-08
-2.60329e-08 2.70128e-08 3.37227e-08
1.61414e-06 2.59171e-06 -9.0279e-07
1.82249e-06 1.8781e-06 -3.91293e-07
-9.71126e-08 2.0806e-06 -9.70642e-07
-3.30032e-08 3.80498e-09 -9.379e-09
3.45456e-05 2.2679e-05 3.2093e-05
2.75022e-05 2.20733e-05 2.90553e-05
8.03694e-09 -3.63052e-10 -1.20057e-08
4.53136e-09 7.88017e-08 3.53903e-08
4.03889e-05 2.32683e-05 -2.97215e-05
1.6793e-08 1.35394e-07 6.6131e-08
2.5419e-08 2.82752e-08 5.71721e-08
4.20371e-08 2.40206e-08 5.73159e-08
3.66814e-07 3.72894e-07 -3.06153e-07
2.75534e-08 2.4349e-08 4.50346e-08
2.87219e-06 5.92503e-06 -1.06331e-06
3.70714e-06 4.19425e-06 -5.78466e-07
1.40219e-08 6.75028e-08 8.78902e-08
-1.26093e-08 7.31194e-08 2.09767e-08
-2.66646e-08 1.43192e-08 2.99455e-08
-1.40167e-08 5.10522e-10 8.50608e-09
7.09549e-06 1.50328e-06 -3.9865e-07
8.96283e-06 2.2183e-06 -3.46525e-06
-2.48162e-06 2.08114e-06 1.30402e-07
-1.64133e-07 3.74182e-07 4.36863e-08
2.36924e-06 9.42859e-07 -2.04311e-07
-6.15786e-08 8.15188e-08 8.07282e-09
-2.56207e-08 9.55819e-08 -5.21995e-09
-1.76977e-06 1.06845e-07 6.98328e-07
-2.00843e-06 4.60446e-07 -3.17748e-07
-8.99933e-07 2.15949e-07 -8.83181e-08
-1.05498e-06 1.28067e-07 -3.5372e-07
-7.38922e-08 9.91297e-08 -6.36273e-08
-4.28125e-07 3.63128e-07 3.0958e-09
4.92852e-07 1.65255e-07 -2.57759e-07
4.92665e-07 1.83674e-07 -2.07558e-07
-4.49238e-07 3.73736e-07 8.17571e-09
6.84338e-07 4.91449e-06 7.53523e-08
1.74502e-06 4.21238e-06 1.68158e-08
1.17668e-06 3.77558e-06 1.75092e-07
1.36382e-08 1.56152e-08 5.62181e-08
7.36064e-06 1.5812e-06 2.4872e-07
8.17775e-06 1.74807e-06 -1.10429e-06
-1.48213e-06 6.49445e-06 -1.1354e-06
1.30897e-08 -2.13976e-09 1.55803e-08
1.95991e-06 4.29033e-06 6.18102e-08
3.69653e-06 7.78155e-06 4.08693e-06
4.69581e-06 5.85783e-06 2.56148e-06
8.68162e-06 7.55796e-06 3.56887e-06
1.12338e-07 4.18498e-07 7.15449e-08
8.0336e-08 5.39607e-07 5.23027e-08
-3.22903e-07 1.53709e-06 1.76161e-07
-7.71111e-08 8.59094e-07 1.03e-07
6.75317e-07 2.94595e-07 1.47485e-07
3.58584e-07 5.30787e-07 1.08282e-07
1.90604e-06 6.44255e-07 -2.95694e-08
2.50047e-06 1.03457e-06 3.60518e-07
-3.84173e-08 1.11912e-09 3.01723e-08
-3.28479e-08 -2.44216e-09 1.57694e-08
7.56827e-08 1.85615e-08 -8.1555e-08
5.96611e-08 8.37648e-09 -4.95587e-08
-2.20892e-08 7.37096e-08 1.11047e-07
1.55962e-08 6.03229e-08 1.18153e-07
-1.55829e-08 6.23153e-08 1.0379e-07
2.66639e-07 1.01673e-07 2.03746e-07
3.98013e-07 2.42293e-07 -6.22608e-08
5.60776e-07 2.63958e-07 1.41462e-07
2.35715e-08 7.52809e-08 -8.21489e-08
1.27848e-08 7.66814e-08 -7.8332e-08
-4.0043e-08 5.77915e-07 -3.34785e-07
3.41455e-08 3.37201e-07 -2.00514e-07
-5.34574e-07 3.18778e-06 -5.72422e-07
-1.12537e-06 2.36232e-06 -4.3133e-07
-1.44027e-08 6.32656e-08 -5.60671e-08
2.06765e-07 -4.12549e-09 -4.08697e-08
-2.16813e-08 5.4755e-09 1.25027e-08
1.34274e-08 3.32559e-08 -5.14333e-08
-1.46611e-06 3.9296e-06 -1.70788e-07
-8.00479e-08 3.70491e-07 -2.7509e-07
-1.42403e-07 3.21081e-07 -2.2637e-07
1.97047e-05 2.77753e-05 2.74157e-05
1.65035e-06 8.49783e-07 1.2286e-06
7.91233e-05 6.90941e-06 6.6205e-06
8.86774e-05 7.18846e-06 -4.43557e-06
7.27847e-05 7.34977e-06 -1.26017e-05
8.57704e-05 6.99018e-06 -1.37534e-06
1.84651e-06 8.32541e-07 1.15339e-06
1.89574e-05 2.32386e-05 2.21772e-05
1.76911e-05 2.32119e-05 2.04014e-05
4.55984e-08 2.91649e-08 -8.13381e-08
-2.5542e-08 5.74335e-09 -2.86189e-08
-1.26015e-08 4.74002e-09 -5.17906e-08
5.12458e-08 1.83309e-08 -6.74745e-08
2.31274e-08 8.47499e-09 -3.30882e-08
1.38972e-07 2.44366e-07 8.66182e-08
1.02799e-07 3.61854e-07 2.16426e-07
-6.40454e-07 8.13684e-08 2.42608e-07
-1.9983e-05 8.44269e-06 -8.30036e-06
-2.11945e-05 8.35687e-06 -8.67801e-06
-8.61239e-07 7.83923e-07 -2.17559e-07
2.1286e-07 2.04091e-07 -1.65789e-07
3.63924e-07 3.85495e-07 1.09829e-07
1.88611e-07 5.16764e-07 -2.74015e-07
1.77574e-07 2.16915e-07 -1.45726e-07
1.27294e-07 4.6736e-09 7.59169e-08
1.0432e-07 5.53183e-08 1.3347e-07
6.57503e-08 3.32319e-08 8.6229e-08
1.15019e-06 1.55561e-06 -1.05288e-07
1.27518e-06 1.75228e-06 -1.08115e-07
-3.93019e-05 1.69951e-05 -2.58528e-05
-9.64051e-08 2.05234e-07 4.54853e-09
3.46712e-08 6.83783e-09 2.29097e-08
-2.96472e-08 6.98158e-08 1.26771e-07
6.10713e-07 1.8707e-06 -1.98072e-07
6.39235e-07 1.34745e-06 -1.65442e-07
-5.45882e-08 9.24117e-08 -1.70282e-09
1.17223e-07 1.86548e-07 4.27406e-09
-1.08151e-07 1.64047e-07 -1.19368e-08
-1.64779e-05 1.21343e-06 -5.30803e-07
2.6192e-09 1.0752e-07 -5.19628e-08
-3.81809e-09 9.15752e-08 -4.55281e-08
-1.01805e-05 -1.36748e-08 -1.71761e-06
7.89234e-07 7.2484e-07 -2.50548e-07
-1.37753e-05 2.77341e-06 2.08262e-06
-1.12394e-08 1.02483e-07 2.04091e-09
1.60908e-06 6.01016e-07 1.22939e-07
1.78734e-06 4.74042e-07 4.57946e-07
2.44e-09 6.74381e-08 -3.4876e-08
-9.21005e-09 7.97411e-08 2.41933e-08
1.13959e-07 2.03564e-07 -1.21424e-07
1.79156e-08 -1.05943e-08 -1.76196e-08
1.76968e-08 3.64593e-10 -3.66962e-08
4.45409e-07 4.61304e-07 -1.21669e-07
5.52837e-07 3.88379e-07 6.82144e-08
2.62229e-06 2.05383e-06 8.0938e-07
3.08173e-05 2.46434e-05 3.15631e-05
2.38466e-05 2.4445e-05 2.92439e-05
1.75762e-08 7.96506e-10 3.04873e-09
-1.57286e-08 1.92548e-10 -1.54968e-08
2.40469e-05 2.40413e-05 2.6848e-05
3.58757e-07 9.63177e-08 1.54227e-07
1.83284e-07 1.4332e-07 1.52402e-08
-2.17298e-08 5.59055e-08 -1.39245e-09
-1.06373e-07 2.0689e-07 1.85851e-07
-9.48023e-08 2.27192e-07 1.86643e-07
-4.43431e-07 3.47009e-06 2.94817e-07
-1.02485e-07 4.38705e-08 4.09578e-08
-2.48291e-08 1.24014e-07 9.77902e-08
-2.70673e-05 3.02626e-05 -5.03626e-05
-2.17461e-05 2.8833e-05 -4.38021e-05
-5.96951e-07 3.46169e-06 3.08094e-07
1.07333e-06 1.19306e-06 -2.30268e-07
-1.99832e-07 2.96133e-06 3.93027e-07
-2.6219e-09 -3.49589e-09 -2.28537e-08
3.48127e-07 7.77504e-07 -1.92391e-07
6.47112e-06 3.37729e-05 -3.31261e-05
4.13239e-07 5.59639e-07 -7.19525e-08
9.06526e-07 6.0914e-07 6.14254e-07
5.95104e-08 1.0487e-07 -5.27997e-08
-3.27313e-08 4.7295e-08 3.02852e-08
8.8702e-09 2.12522e-09 -3.356e-09
-4.25308e-09 3.2054e-09 -2.07542e-08
-1.962e-05 1.93536e-05 -1.90267e-05
-3.03018e-08 6.25279e-08 9.75163e-08
1.25964e-06 4.793e-07 -1.56339e-07
-5.47544e-09 -2.67082e-09 2.19343e-09
6.97113e-08 1.34282e-07 1.47059e-07
2.25114e-08 9.13953e-10 2.29866e-08
1.37788e-05 2.37422e-05 -1.75494e-05
2.60743e-07 8.95948e-08 -1.04949e-07
1.35814e-05 2.4276e-05 -2.00335e-05
0.000305957 1.68037e-06 -4.39114e-05
0.000282915 4.82235e-06 -5.02342e-05
1.61434e-08 9.97264e-08 9.57157e-08
0.000168253 3.13923e-05 -8.98224e-05
1.41554e-08 1.12433e-07 9.19872e-08
-5.08962e-08 6.64778e-08 1.27514e-08
-5.93508e-08 4.83618e-08 -5.59993e-09
4.39726e-08 1.54894e-07 1.30868e-07
1.02931e-06 1.06236e-06 -3.37285e-07
1.46983e-08 3.76935e-10 -9.69939e-09
3.44318e-07 2.66117e-07 -8.81211e-08
3.41093e-05 3.29879e-05 -3.59503e-05
3.46256e-07 1.8805e-07 7.53056e-08
3.50676e-07 1.51583e-07 1.36686e-07
3.56679e-07 1.79727e-07 1.15905e-07
3.19829e-05 2.50752e-05 3.51714e-05
-9.01021e-08 4.86192e-08 -1.62485e-08
-7.89932e-08 4.16499e-08 -4.51013e-08
-1.753e-07 1.0313e-07 -8.79972e-09
-3.09122e-07 2.59734e-07 -6.78597e-08
3.60366e-05 2.88895e-05 3.99493e-05
7.3676e-06 3.75136e-06 -1.08572e-06
3.07172e-06 4.47233e-06 -2.10886e-06
3.37843e-06 4.46316e-06 -1.94465e-06
0.000197713 7.36741e-06 -2.53293e-05
0.000185317 8.23974e-06 -2.32562e-05
4.2447e-06 3.74267e-06 -1.48959e-06