# vtk DataFile Version 2.0
S, Created by Mohamad Ibrahim Cheikh
ASCII
DATASET UNSTRUCTURED_GRID
POINTS 10490 double
-223.577 20.3394 -34.7912
-223.728 23.2863 -32.7656
-130.489 -29.2993 69.2883
-194.383 -37.8828 -41.0231
-207.468 29.5107 40.0417
-235.875 27.4005 13.4741
-191.273 -39.7115 -41.0831
14.3818 -3.10408 87.8011
-191.057 39.2311 -41.6636
-193.396 36.9404 -42.4292
-251.146 3.21337 -3.38137
-251.007 5.46321 -0.715188
-204.325 29.304 -42.1184
18.5744 -1.46686 87.7474
-201.227 30.3652 -43.1793
-151.285 68.7488 -14.6805
-148.48 69.9604 -12.2641
241.381 21.7608 -11.7085
240.378 24.3449 -8.78209
39.2107 72.9874 -47.2081
43.0571 72.2673 -47.9005
45.3879 -3.17767 -86.4968
49.2526 -1.49504 -86.2831
-145.562 -45.4917 -55.5013
-142.058 -46.9159 -55.4275
-191.797 -27.3622 49.9157
-189.472 -30.0407 49.4606
-64.3403 -67.8333 51.3402
-66.4833 -66.0141 53.3384
-121.225 -41.6767 -64.8682
-205.484 44.6103 24.1754
-208.428 41.8748 25.9202
-64.874 -22.5522 81.9764
-61.246 -23.9088 81.9336
44.2876 4.22432 86.5218
-201.398 -44.9171 27.5776
-51.0201 82.8363 -23.737
-47.7804 82.5403 -25.5264
-109.54 -78.4117 -11.2492
-105.514 -79.2425 -10.0786
-195.488 42.6444 35.3086
-200.946 -43.0027 30.8398
-54.4235 -15.2887 84.5436
3.49759 8.32297 87.597
226.254 36.0727 -13.2455
223.493 37.2794 -15.4579
-146.979 22.4341 -67.793
-143.819 23.7063 -68.1884
-167.022 -43.0221 -49.7768
-163.504 -43.4768 -50.8013
-215.266 -7.15621 -44.9383
-215.166 -3.16022 -45.4527
-105.621 -17.5859 77.9033
-104.084 -21.1234 77.2753
-247.96 -12.5214 7.72453
-247.222 -12.2234 10.5723
-226.223 -18.8449 33.5151
-129.022 -40.8333 -63.5498
238.447 4.07575 -27.6837
236.191 2.11816 -30.1595
30.6474 -3.69186 -87.2661
26.6784 -1.94586 -87.4819
-224.96 -22.5387 32.2514
-47.6612 -75.8711 41.3457
-235.553 -26.7704 15.3058
-110.061 51.2886 -60.253
-237.92 -25.2886 13.1993
-16.8478 -1.40185 -87.7911
-20.0173 -3.95926 -87.6314
25.2945 7.62485 -87.2212
27.3203 3.78547 -87.3973
25.4198 1.77246 -87.5314
45.9538 -6.29382 -86.2893
-242.159 -16.9742 16.6268
249.587 -5.3688 -9.40941
249.11 -2.30245 -11.8809
-169.136 48.1723 43.8299
30.4711 -13.4589 -86.3086
-165.508 47.9457 45.7329
-244.371 -14.4426 14.9734
243.986 6.92815 20.1945
244.544 3.56456 20.2422
-218.53 -34.2525 26.9087
-142.145 -69.4108 21.2698
-139.63 -70.7397 18.7867
-221.095 -32.0561 27.0486
-157.97 -59.7994 33.3592
-205.034 32.4672 39.2812
-154.318 -61.3632 32.6033
21.3223 7.44111 87.3669
-119.036 18.559 75.2647
-116.37 20.6515 75.2301
25.5776 -59.0295 64.6484
29.1117 -57.657 65.6956
-134.469 55.0964 -49.9459
-136.74 52.5987 -51.8477
-177.086 57.9237 23.4418
-176.675 59.401 19.8484
-69.4808 65.5875 -53.397
-62.7203 16.9593 -83.515
-66.3402 16.9272 -83.1784
-65.9625 67.17 -51.9566
124.445 57.7516 50.1269
121.011 58.3585 50.4524
-132.441 -69.8469 26.794
-132.815 -68.0008 30.9879
-188.849 35.1282 46.2998
-185.102 37.3008 46.4527
-232.725 13.1753 -30.6504
-59.0715 75.5978 40.022
-60.3809 77.1076 36.7704
-231.927 16.7996 -29.6014
-175.27 -46.9576 -42.1659
-178.783 -11.2243 60.8666
-181.795 -8.37346 60.2298
-195.81 53.7588 12.6421
-198.361 52.0723 14.6689
-195.137 -6.40208 -55.1459
-196.108 -2.36167 -55.0449
-155.75 25.0889 64.3788
-159.443 22.5003 64.2284
-196.21 -54.5516 -7.39881
-193.182 -56.048 -5.79638
-90.7124 75.3509 -32.5391
-86.7076 75.7617 -32.9198
-39.2321 -78.9667 -36.3293
-42.7329 -77.6535 -38.6052
-35.6861 20.7254 -84.6082
-119.248 -59.0753 -50.1313
-116.053 -58.3873 -51.8267
-103.565 -58.9093 54.4109
-107.459 -57.2166 55.2857
-176.039 46.919 -41.8151
26.8977 14.0986 -86.3519
23.7537 15.8392 -86.1629
-175.592 44.589 -44.508
-89.4412 -39.5822 72.096
-93.3098 -38.4398 72.1139
-1.70812 -75.0113 -46.0103
2.63093 -75.2479 -45.6169
-158.02 -33.193 -59.8757
-154.736 -36.63 -58.9141
25.022 73.1792 48.0849
27.572 71.1926 50.8188
-166.54 38.8303 53.2966
-168.956 36.4593 54.0351
126.636 60.266 46.3533
124.976 62.2382 44.251
55.9044 20.2707 83.3695
-158.136 12.6616 67.2464
-155.542 9.861 68.4454
-43.2515 74.0745 -45.0327
70.8543 53.1227 -65.6303
-40.4798 75.7162 -42.5492
222.064 -27.8282 -30.5326
225.276 -26.0123 -29.2253
-15.7579 80.3236 -35.5206
-18.6829 79.1192 -37.966
247.477 -7.06407 13.9944
245.671 -9.07238 16.5073
-182.887 19.8634 57.0478
-181.346 22.7073 56.5869
-54.9352 69.1396 50.9336
-52.6579 71.0054 48.6081
-221.67 26.3883 -32.1205
245.288 -12.7014 14.713
-123.333 -44.657 -62.3495
-128.466 -46.8984 -59.3633
-126.779 -44.2463 -61.7936
-219.064 -11.0513 41.792
-206.36 49.8836 -6.47946
-208.044 48.5216 -9.517
-173.561 -35.137 53.1166
-196.132 -34.8661 -42.6466
-56.8056 10.698 85.0558
-98.9837 80.7539 4.82226
-149.825 -21.4639 67.3426
-153.216 -21.7081 66.3225
-105.18 79.9036 2.23341
-102.798 80.1362 5.32944
-208.259 -1.82393 -49.3016
-211.701 -0.423511 -47.506
6.84113 77.0954 -42.3624
8.17432 75.2947 -45.4591
-13.3576 86.2445 -16.8533
-17.3987 85.5789 -19.5752
11.929 74.6795 -46.3633
-209.314 34.9112 -34.0773
-209.415 37.4893 -31.1356
-243.668 12.2933 -17.9918
-205.983 40.1006 -30.681
-237.951 16.7327 23.064
-240.123 13.5382 22.3945
-198.664 34.6919 41.3335
-44.0843 -51.8552 -69.4053
-47.93 -52.1722 -68.8535
-63.6685 78.7405 -32.3673
-60.4858 79.7098 -30.699
-198.894 37.6903 38.474
-195.372 39.9891 38.3625
193.192 51.8484 -22.0509
191.206 51.6133 -24.5773
-17.1021 73.3826 -48.1995
-16.0554 71.5887 -50.8674
-160.703 -8.67088 67.1341
-158.246 -5.13886 68.2033
-159.176 -12.1824 67.034
-155.582 -13.9438 67.7204
-181.216 -39.3667 -46.6236
-187.066 -34.8931 -47.3515
234.201 -8.19799 31.0077
231.367 -8.83947 33.3482
-185.722 -37.8044 -45.7368
-220.423 -36.3319 -21.8075
-223.2 -33.1947 -23.2995
-73.7465 69.8393 46.9109
-199.238 43.3799 -31.6577
-202.402 40.5248 -32.9577
-78.563 72.1187 42.2757
-74.6671 72.0084 43.3154
-199.862 -47.1003 -25.2007
-196.405 -49.1626 -24.5823
-156.237 -38.5596 57.172
-155.212 -34.6013 59.9774
-162.887 56.2753 -36.4517
-159.734 58.1024 -35.2746
245.94 -16.0777 8.95242
246.756 -13.0533 10.9096
-202.186 25.1271 -45.9104
246.469 -16.6405 5.45943
-222.675 -40.7292 -3.8104
-219.564 -42.6763 -4.53568
-225.908 36.4574 -12.9114
-224.081 36.2176 -16.8753
-228.9 -34.8682 10.6503
-231.376 -33.5771 7.89201
-225.472 -37.7617 9.69446
119.544 74.8289 19.8746
-172.163 -51.1025 -38.7774
115.349 75.6447 19.8217
47.9221 12.186 -85.5239
51.5083 10.7835 -85.457
-180.219 -22.1709 57.2366
-179.923 52.3293 -32.2841
-165.445 0.850554 66.2729
-168.568 2.82917 65.2464
-181.018 -17.4127 58.5582
36.4517 -59.752 63.3327
37.7863 -57.205 65.5498
-159.984 -59.9392 -31.9014
-182.766 -21.7971 -56.3852
-184.309 -18.0287 -57.0967
-11.9264 15.1932 -86.578
-188.59 -54.9977 19.102
-192.466 -53.121 19.6705
-145.922 9.34645 -71.0612
-143.726 12.1544 -71.1843
-174.342 52.4373 35.6797
-173.412 50.7311 38.5835
-187.163 39.7322 -43.3197
-231.493 33.5006 -7.79802
-229.087 35.9742 -4.95837
-234.899 30.8745 -5.94406
241.404 7.72119 23.4446
239.892 10.8372 24.1019
240.609 13.4022 21.8297
-138.878 -61.8297 -39.4939
-138.123 -60.1619 -42.2946
-141.494 -58.2488 -43.5884
-200.351 -41.1635 -33.692
-218.714 20.1186 -38.5057
-52.6354 9.1292 85.5656
-56.6793 -81.1827 27.5691
-60.1938 -81.4605 25.7796
-152.591 56.173 41.6882
-153.333 58.0722 38.6414
-189.411 -9.89433 -57.0414
-186.063 -8.87753 -58.5382
64.9147 -8.70069 84.5718
67.8937 -7.06005 84.4382
-196.835 -37.2184 40.1915
-200.414 -34.6088 40.3571
-180.668 -48.2452 -37.6851
-174.531 -52.0916 -36.0706
-215.618 -38.5089 23.8564
-218.655 -36.4147 23.7609
-178.254 -50.9815 -35.4221
-121.451 48.0012 -60.2826
-70.8986 59.8978 59.5049
26.871 -68.2975 54.6906
24.8067 -66.5851 56.8777
-87.1822 -8.56654 -82.0978
-84.0036 -6.25538 -82.7099
-29.3646 86.0818 -15.1114
-33.2785 85.635 -16.585
-74.7347 60.3682 58.4455
-117.516 49.058 -60.3866
67.0789 -10.957 -84.1015
63.3292 -11.5648 -84.3756
-122.252 44.7942 -62.5114
-75.7732 64.3842 -53.812
-79.3294 64.5073 -53.0314
-210.937 -46.4387 -11.8317
-207.911 -47.2772 -14.7163
-70.3857 -66.9045 51.5874
-82.1032 62.0084 -55.4406
181.002 57.5737 -20.4514
187.79 54.7438 -20.7265
-57.9937 -57.7644 -63.21
-60.2528 -59.9469 -60.8761
185.027 56.5071 -18.9619
-52.2 5.00998 85.9378
170.803 -60.9399 -21.4146
166.658 -61.8362 -22.7993
-242.161 -11.2302 20.9366
-241.443 -7.71407 23.3974
231.622 25.8612 -22.5152
229.371 25.1807 -25.8602
225.984 27.6879 -26.9257
-235.385 -18.9686 -24.5116
-234.849 -16.6286 -26.7386
-226.063 27.168 -27.371
-222.946 28.4641 -29.127
-220.765 31.3793 -28.1504
-250.634 -7.29342 -0.178673
-176.033 45.3141 43.5525
58.6092 51.3156 -68.4847
59.7089 48.4883 -70.4017
128.092 68.3815 32.5454
131.586 68.3038 30.9631
-176.911 47.6268 40.5456
-181.015 46.7584 39.3199
18.7047 -86.4178 15.2686
142.026 69.364 -21.5183
141.082 68.3973 -25.0785
23.2384 -86.1703 15.8922
181.098 -44.0244 42.3152
25.6366 -86.6619 12.3796
-189.023 21.6515 -53.8591
-189.444 17.9052 -55.0407
-212.327 -45.0142 14.0797
-120.844 -46.9998 -61.2139
-24.3214 -37.2693 79.2627
52.2945 18.5659 -84.0506
55.8095 16.7775 -84.1497
-25.2929 -41.1187 77.2977
-119.139 -6.51928 -77.2251
-115.758 -7.7343 -77.7408
-200.045 16.482 50.7242
-215.148 -43.2639 14.3206
-153.405 33.0835 61.3866
-156.826 31.3886 61.2181
-157.698 28.2419 62.4636
-79.9681 -83.4309 0.602801
-62.6173 73.2969 -43.4917
-62.0355 71.2384 -46.882
-79.8044 -83.3553 -4.02125
-209.642 -18.6805 44.8806
-59.281 71.8714 46.3493
-205.671 -19.6723 46.6705
-191.283 -46.3881 33.3545
-190.153 -45.0074 35.9371
-195.126 47.3301 29.0243
-192.216 -42.6378 37.4511
-97.6436 19.9096 78.615
-94.0365 21.0561 78.8543
-195.846 -41.8714 35.9847
-247.68 -8.81097 12.4836
188.064 -42.0216 40.5961
184.93 -44.2656 39.9695
-127.067 75.5302 7.90099
-123.406 76.0731 9.61234
48.8298 1.72321 86.3082
130.444 15.5989 -73.6034
-179.67 46.5388 -40.3229
198.594 13.1815 52.3605
200.49 9.43519 52.2852
113.322 74.8993 23.7036
109.576 75.3573 24.3979
149.547 63.7468 -30.6968
145.715 65.3565 -29.5463
-166.876 -45.6684 -47.4237
129.837 19.3625 -72.8369
-209.796 43.71 -21.0893
-206.935 46.1335 -19.3122
126.462 20.215 -73.3306
-61.8807 -0.247881 85.2943
-59.1535 2.66322 85.4898
[...]
POINT_DATA 10490
VECTORS F double
1.34746e-08 3.08487e-08 7.432e-09
1.26321e-07 8.93382e-08 -4.21102e-08
1.46987e-07 7.25559e-07 3.40702e-07
5.77174e-08 -7.52918e-09 -2.65299e-08
2.88873e-07 2.56964e-07 -6.13583e-09
1.81849e-07 1.94321e-07 -5.41796e-09
8.41044e-08 2.57412e-08 -7.28227e-08
-1.93244e-06 2.38125e-06 1.22939e-07
9.4087e-07 7.12313e-07 1.42489e-07
1.02144e-06 6.19524e-07 -3.06387e-08
1.21906e-08 7.36385e-08 -4.08733e-08
1.06965e-08 5.76159e-08 -1.95099e-08
1.02014e-07 3.52078e-07 1.84368e-07
-2.37051e-06 3.93467e-06 1.2721e-07
1.42267e-07 1.21944e-07 4.58268e-09
3.36431e-06 6.92711e-07 -1.00069e-06
4.31826e-06 7.98741e-07 -1.84437e-06
-1.11029e-08 2.13325e-08 1.16248e-08
-1.30982e-08 2.06885e-08 1.34541e-08
-2.81923e-05 6.50369e-06 7.18841e-06
-2.75117e-05 5.0865e-06 4.64639e-06
-3.15029e-06 1.85132e-06 -2.70398e-07
-2.866e-06 1.36617e-06 -2.23965e-07
3.0999e-08 2.17642e-07 -1.88345e-07
5.75394e-08 2.44895e-07 -2.25344e-07
1.66972e-08 1.69333e-07 1.00678e-07
1.37704e-09 1.44625e-07 8.84869e-08
-4.60197e-08 1.95862e-07 2.51721e-07
-1.9345e-07 1.51645e-07 1.58161e-07
2.50311e-07 2.1005e-07 -1.92225e-07
5.63571e-07 2.55752e-07 1.14534e-07
3.7628e-07 2.80118e-07 -8.20939e-08
1.5113e-07 3.00846e-06 8.42289e-07
-2.57256e-07 1.66645e-06 4.6274e-07
-2.04191e-06 3.06164e-06 -2.15173e-08
1.51445e-08 2.89948e-08 6.07665e-08
8.37666e-05 1.48424e-05 2.97525e-05
9.06235e-05 1.72864e-05 3.51278e-05
4.00824e-08 3.87276e-10 -5.0484e-08
3.46445e-08 -2.79299e-09 -2.2449e-08
6.42731e-07 3.5031e-07 1.25812e-08
2.79854e-08 2.95591e-08 6.35422e-08
2.83449e-07 2.86005e-06 5.39546e-07
-1.59419e-06 3.75239e-06 -3.48737e-07
-2.20368e-08 1.33277e-08 -9.78941e-09
-3.74282e-08 3.40558e-08 1.58779e-08
1.27359e-06 8.70059e-07 -5.01393e-08
1.12363e-06 1.58116e-06 2.59554e-07
-5.1601e-08 1.0319e-07 -6.79887e-08
-4.49219e-08 1.16009e-07 -8.15813e-08
5.32412e-08 1.45878e-07 -5.44559e-08
6.9709e-08 1.5483e-07 -5.11666e-08
9.8006e-07 2.35636e-06 6.94606e-07
1.07103e-06 2.28592e-06 8.01481e-07
-4.01869e-08 9.82764e-08 1.37398e-09
-2.81986e-08 7.42158e-08 5.07815e-09
6.02454e-08 9.7979e-08 1.04878e-07
1.78229e-07 3.49285e-08 -6.67451e-08
-1.82169e-08 1.22151e-08 -1.74106e-08
-1.71994e-08 7.3904e-09 -1.59705e-08
-2.48691e-06 2.97322e-06 -2.32713e-07
-2.27985e-06 3.85031e-06 -1.70763e-07
1.39877e-08 8.76964e-08 7.32317e-08
-3.95309e-08 5.74723e-08 9.98856e-08
-1.09864e-08 1.25675e-08 1.28008e-09
1.13927e-05 5.97783e-06 2.54061e-06
-2.09363e-08 3.72183e-08 2.51059e-08
-3.45258e-07 4.76562e-06 -6.79868e-08
2.01626e-07 3.78226e-06 -1.76525e-07
-8.52055e-07 6.56959e-06 5.4406e-07
-3.22699e-06 5.18432e-06 1.01049e-07
-2.20862e-06 4.02679e-06 3.01346e-09
-1.28379e-06 2.13267e-06 -2.39258e-07
5.82503e-09 4.52767e-08 5.66104e-08
2.63611e-09 1.28111e-08 1.25131e-09
-3.31255e-09 4.54022e-09 -9.38335e-09
3.80969e-07 3.80748e-07 -2.38479e-07
9.51731e-07 1.60688e-06 -2.09438e-07
5.31868e-07 5.57823e-07 -3.49152e-07
1.25766e-09 2.90713e-08 3.0554e-08
-1.00741e-08 1.07674e-08 1.12067e-08
-3.07949e-09 1.10748e-08 2.60412e-09
2.04196e-08 1.57431e-08 4.03434e-08
2.75364e-08 6.44394e-09 4.35602e-08
1.42764e-08 3.61737e-09 2.66104e-08
1.68868e-08 1.83061e-08 3.85951e-08
4.02466e-08 3.45881e-08 8.53351e-08
2.42301e-07 2.96289e-07 -9.00507e-08
4.17842e-08 2.96001e-08 7.99242e-08
-4.72535e-07 4.7554e-06 -3.90902e-07
2.22585e-06 2.76236e-06 -2.50153e-07
2.06901e-06 3.21754e-06 -4.91414e-07
-2.51973e-08 2.02429e-07 1.86056e-07
-6.94513e-08 2.97492e-07 2.6486e-07
4.72976e-06 2.85891e-06 1.59469e-06
5.62582e-06 2.42743e-06 6.46055e-07
4.47911e-07 3.37548e-07 -4.19797e-07
1.28316e-06 5.72925e-07 -3.16236e-07
2.45513e-05 1.80531e-05 1.82634e-05
1.96257e-06 2.00554e-06 2.26809e-07
1.72431e-06 7.32479e-07 -1.9312e-08
2.36847e-05 2.01951e-05 2.24269e-05
-1.02228e-06 3.26432e-07 -6.53619e-08
-1.08212e-06 3.78848e-07 -1.20443e-07
4.16236e-09 1.35849e-08 3.79329e-08
1.60795e-10 1.8823e-08 4.13909e-08
1.01791e-06 5.42514e-07 9.67054e-08
1.01055e-06 6.62707e-07 -3.91391e-08
6.04941e-08 8.47009e-08 -1.98258e-08
4.41755e-05 2.0575e-05 -3.08814e-05
4.4383e-05 2.03573e-05 -3.37662e-05
3.48487e-08 8.72905e-08 1.61114e-08
4.447e-08 -2.28504e-08 2.81633e-09
4.53492e-07 3.87303e-07 2.34504e-07
2.27702e-07 1.44551e-07 1.04241e-07
6.66258e-07 3.62307e-07 -2.77238e-07
8.00834e-07 3.81986e-07 -3.01465e-08
-6.12384e-09 1.17279e-07 -1.09626e-08
1.2461e-07 1.62067e-07 -6.13062e-08
4.0484e-07 2.36669e-06 -8.02404e-07
1.25318e-06 9.63015e-07 4.35156e-08
8.22098e-09 -2.04956e-09 -1.15782e-08
-1.2065e-09 -7.34878e-10 1.20264e-08
2.5657e-05 7.09933e-06 7.68283e-06
2.69137e-05 8.79184e-06 1.15546e-05
-4.41572e-08 5.04663e-08 -1.03858e-07
-2.99094e-08 6.52911e-08 -1.27279e-07
1.00475e-06 9.55076e-06 2.28764e-06
1.27992e-07 1.56885e-07 -2.22151e-07
1.25128e-07 1.82142e-07 -2.39503e-07
4.28109e-08 1.53357e-07 1.76012e-07
9.04126e-08 2.45883e-07 2.75986e-07
2.35615e-06 7.28074e-07 -3.97482e-07
-5.48687e-07 6.11376e-06 9.77261e-07
-2.23666e-06 3.57557e-06 5.81803e-07
7.41294e-07 1.14739e-07 -2.43111e-07
2.59411e-07 5.94718e-07 3.65914e-07
3.17229e-07 9.07528e-07 5.34005e-07
-6.36541e-08 8.27278e-08 -1.34583e-07
-6.24089e-08 6.00844e-08 -9.95545e-08
1.24668e-07 2.35896e-07 -1.71055e-07
2.72976e-08 1.49051e-07 -1.01451e-07
-3.55524e-05 1.64566e-05 -2.27799e-05
-3.41744e-05 1.65298e-05 -2.08867e-05
2.64776e-06 1.17861e-06 1.54247e-07
2.30976e-06 1.3499e-06 -2.66146e-08
-5.61576e-07 1.34224e-07 1.33267e-08
-1.36459e-06 1.3884e-08 4.52316e-07
-1.15844e-06 1.04947e-06 -1.60066e-07
9.66253e-07 1.03097e-06 8.40707e-08
2.66928e-07 2.76878e-07 3.43754e-08
4.48747e-05 3.09039e-05 4.55569e-05
-5.8487e-06 3.02937e-06 1.679e-06
5.30233e-05 2.80237e-05 4.36919e-05
-2.31642e-09 7.68041e-09 -9.06246e-09
-1.48504e-09 6.02594e-09 -6.76491e-09
0.000113743 3.56078e-05 7.43422e-05
0.000101226 3.96048e-05 7.64355e-05
-8.30826e-10 -5.3386e-10 1.52696e-09
-1.38271e-09 6.51288e-10 2.87656e-09
3.86489e-07 5.5573e-07 -4.18038e-08
3.35494e-07 6.09408e-07 -1.12909e-07
3.83898e-05 2.90818e-05 -3.44075e-05
4.14382e-05 2.82542e-05 -3.57769e-05
1.97831e-07 7.76889e-08 -1.03327e-07
-4.20214e-09 -1.74664e-09 7.06658e-09
2.42159e-07 1.91662e-07 -1.95921e-07
1.18959e-08 1.28311e-07 -1.0452e-07
2.25103e-07 3.60253e-08 -8.2338e-08
1.19228e-09 1.3506e-07 3.64792e-08
5.47242e-07 2.92208e-07 1.15807e-07
5.90156e-07 3.18147e-07 4.2562e-08
9.93267e-08 1.40817e-07 1.32887e-07
9.07734e-08 4.05969e-09 -5.44295e-08
2.28612e-06 3.79266e-06 -2.90096e-07
2.87765e-05 4.4415e-06 -2.05997e-06
-3.60117e-08 2.78854e-07 7.90687e-08
-6.93073e-08 3.78421e-07 1.0426e-07
2.52366e-05 4.20006e-06 -4.75483e-06
2.71322e-05 4.58945e-06 -4.93529e-06
4.77442e-08 9.35377e-08 -2.81529e-08
6.66958e-08 1.87002e-07 -3.80558e-08
2.16962e-05 3.47969e-05 6.37561e-05
-9.89859e-06 2.98e-05 4.91405e-05
0.000204384 9.43038e-06 2.84234e-05
0.000185568 1.11047e-05 2.83525e-05
-9.80434e-06 2.57332e-05 4.11409e-05
2.98733e-07 2.22368e-07 3.1573e-09
8.55657e-07 4.65064e-07 -1.4463e-07
1.04639e-07 1.79673e-07 -5.07398e-08
7.71448e-07 5.88115e-07 1.34572e-07
6.96554e-08 2.05346e-07 -6.09927e-08
8.23892e-08 1.72939e-07 3.60885e-09
4.2094e-07 -1.75621e-07 3.95104e-07
4.31471e-07 3.18062e-07 -2.71189e-07
3.9716e-07 4.02619e-07 -3.38925e-07
5.51747e-05 1.77357e-05 2.98581e-05
5.92834e-05 1.66154e-05 2.8841e-05
6.95938e-07 -3.43497e-08 4.74119e-07
5.16443e-07 2.92402e-07 1.72096e-08
-7.41084e-08 3.54084e-08 3.76281e-09
-1.03704e-07 5.67271e-08 2.03514e-08
3.26168e-05 4.44595e-05 6.62716e-05
9.89469e-06 4.02217e-05 5.62239e-05
7.52369e-07 4.25455e-07 2.75448e-07
9.21012e-07 3.52964e-07 2.88222e-07
2.03393e-07 1.60256e-07 8.82544e-08
3.21034e-07 3.75904e-07 1.67699e-07
1.01541e-07 9.83065e-08 -1.31325e-07
1.1498e-07 7.64861e-08 -1.11975e-07
1.34009e-09 1.03713e-08 1.5024e-09
9.2229e-10 1.02248e-08 1.92653e-09
8.77152e-08 6.2896e-08 -9.55953e-08
3.55697e-09 2.6078e-09 -8.74457e-09
-1.16156e-09 4.73611e-09 -5.38394e-09
3.00426e-05 1.37107e-05 -1.46297e-05
7.79631e-07 6.19367e-07 2.47983e-07
8.09009e-07 5.84442e-07 1.10352e-07
2.59015e-05 9.71596e-06 -1.06815e-05
2.91583e-05 1.35875e-05 -1.64343e-05
4.11285e-09 1.37401e-08 -2.96733e-08
4.33439e-10 7.363e-09 -1.51498e-08
7.10527e-08 2.70357e-07 2.06114e-07
2.07232e-07 2.50915e-07 2.10412e-07
1.55571e-06 1.08794e-06 8.28475e-07
1.9365e-06 9.80329e-07 5.41131e-07
1.8403e-09 6.96634e-09 6.3236e-09
5.18694e-10 7.45061e-09 7.47574e-09
3.2648e-07 2.32044e-07 -4.90318e-08
5.15858e-10 2.93714e-09 6.0965e-09
-2.82583e-08 1.98519e-08 -1.00134e-08
-2.14428e-08 9.86909e-09 3.42196e-08
3.08289e-07 2.35746e-07 5.26443e-09
3.98112e-07 3.0987e-07 1.782e-08
1.27372e-08 -1.74757e-09 2.77945e-08
-2.08743e-09 1.16248e-08 4.19692e-08
2.01368e-09 -5.5036e-09 -1.57059e-08
-1.90736e-06 1.93323e-07 6.76736e-07
5.18282e-08 -2.01791e-08 -1.57846e-09
-1.97774e-06 2.44484e-07 4.76056e-07
5.59502e-07 1.4227e-06 2.411e-07
4.87061e-07 9.57926e-07 1.5682e-07
1.15103e-07 3.21233e-07 1.68803e-07
1.53365e-06 5.21971e-07 -2.00385e-07
4.75657e-07 2.11449e-07 1.42666e-07
4.87554e-07 2.95578e-07 1.414e-07
1.59032e-07 3.47833e-07 1.63618e-07
-3.91683e-08 1.97471e-07 1.89067e-07
-1.82644e-08 2.08978e-07 1.83663e-07
4.24394e-08 1.13237e-08 -4.7333e-08
6.96395e-08 6.40608e-08 -5.24005e-08
2.22869e-07 1.22332e-07 -1.26707e-07
5.80057e-07 8.67558e-06 1.51266e-06
7.47065e-09 9.78241e-09 3.71958e-08
2.3718e-09 8.48134e-09 2.57449e-08
1.06741e-06 7.45569e-07 -1.70296e-07
8.10835e-07 1.0556e-06 -2.01982e-08
1.74231e-06 1.09714e-06 -5.70117e-07
1.27587e-06 8.67317e-07 -4.3832e-07
1.05743e-06 1.01753e-06 3.73924e-07
3.54255e-07 2.99036e-07 -2.87085e-09
3.27378e-07 2.6567e-07 7.56563e-08
2.79568e-07 2.20591e-07 -2.0684e-07
-1.19158e-08 1.9644e-08 8.55156e-09
-8.21245e-09 2.45432e-08 -1.02817e-09
-8.58193e-09 2.4046e-08 -3.18336e-09
7.35223e-08 2.8689e-08 -7.65662e-08
1.39734e-08 5.51917e-08 -8.40937e-08
7.41091e-08 1.12488e-07 -1.79775e-07
-1.085e-08 6.53943e-08 -7.19975e-08
1.3034e-07 2.02263e-07 1.50384e-08
3.35491e-06 5.8271e-06 -3.69039e-07
2.62586e-08 2.03791e-08 6.662e-08
1.91859e-08 1.98405e-08 6.81775e-08
1.14009e-06 2.36727e-07 1.91942e-07
3.31312e-06 1.09547e-06 -3.67584e-08
1.40576e-07 2.47683e-07 -1.00113e-07
1.88812e-07 1.45415e-07 -9.55284e-08
1.43662e-07 5.81002e-07 4.62727e-08
-2.93361e-08 1.00143e-06 8.66201e-08
2.1673e-08 7.33876e-08 8.09546e-08
1.61959e-08 7.45935e-08 7.38151e-08
2.1464e-08 2.31093e-08 -4.21831e-08
1.89416e-08 3.83654e-09 -1.67606e-08
1.6162e-08 3.34838e-09 2.32878e-08
1.82797e-08 1.22931e-08 3.94354e-08
1.52951e-08 1.74094e-08 -3.4479e-08
7.13949e-06 3.90484e-06 1.34827e-06
2.5482e-05 1.84311e-05 -1.48357e-05
-4.34586e-09 2.26634e-07 2.83282e-07
-1.19333e-07 1.8353e-07 2.21226e-07
8.07462e-07 1.60835e-06 -2.72806e-07
6.98863e-07 1.92113e-06 -2.32198e-07
0.000151028 1.12814e-05 2.83324e-05
0.000137055 1.30504e-05 3.37143e-05
2.35671e-05 1.60651e-05 -1.29041e-05
7.17517e-06 5.14035e-06 2.46646e-06
-8.57463e-07 6.91612e-07 -1.73835e-07
-8.8866e-07 5.95297e-07 -1.63253e-07
4.71705e-06 3.871e-06 1.64443e-06
2.27244e-05 1.64282e-05 1.57382e-05
2.06235e-05 1.32919e-05 1.23911e-05
1.37419e-09 -6.24176e-09 2.1499e-08
-2.10221e-08 1.5395e-08 -1.30956e-08
-1.39788e-07 6.71115e-08 6.3687e-08
1.93757e-05 1.33067e-05 1.137e-05
-1.93886e-07 5.83551e-08 -4.58091e-08
-1.52778e-07 7.32425e-08 2.39786e-08
-4.55054e-07 2.81494e-07 -2.06128e-07
-2.80534e-07 1.60362e-07 -1.2392e-07
-1.90109e-07 7.36519e-08 -7.63208e-09
1.21071e-06 5.3304e-06 -2.20713e-07
9.41478e-09 5.2335e-09 -5.6984e-09
9.8126e-09 7.07736e-09 -1.04131e-08
-1.35546e-08 3.2672e-08 -1.66824e-09
7.84877e-09 2.29055e-08 1.74699e-08
-4.99388e-09 1.3771e-08 9.52793e-09
-1.45874e-08 2.76566e-08 1.10899e-08
-1.80421e-08 2.40655e-08 6.20783e-09
-3.18674e-08 5.55601e-08 -5.53095e-09
4.43535e-08 2.97331e-09 -4.9543e-08
2.71269e-07 3.18162e-07 4.15e-08
2.74948e-07 1.55647e-07 -1.05556e-07
2.02048e-07 1.90748e-07 1.86301e-08
-2.2861e-08 9.65053e-08 -1.32614e-08
9.71969e-07 4.54692e-07 7.89426e-09
-3.97136e-06 3.63101e-06 2.30463e-06
-2.8188e-06 3.7102e-06 2.26267e-06
-1.01146e-06 4.12762e-08 4.00658e-07
-8.77709e-07 -6.24272e-08 5.9439e-07
1.50905e-06 7.15519e-07 -3.43548e-08
1.37938e-06 2.60131e-07 4.68118e-07
-1.50433e-08 1.00506e-08 5.91403e-08
-4.8871e-07 -1.94828e-08 -4.57719e-07
-8.45453e-07 6.03059e-08 -4.17833e-07
-4.56228e-09 8.7042e-10 5.53959e-09
-1.19158e-08 6.84003e-09 1.33597e-08
-1.10573e-08 -5.99009e-10 -1.38958e-09
1.67424e-07 4.98545e-07 1.28477e-07
1.32771e-07 4.85343e-07 1.01937e-07
-2.70707e-08 2.23711e-08 2.1541e-08
3.44941e-07 2.41555e-07 -2.68835e-07
-4.90889e-08 2.73047e-07 1.26543e-07
-1.44455e-06 2.0433e-06 3.41309e-07
-1.37598e-06 1.94296e-06 2.75656e-07
-1.4887e-07 2.50213e-07 1.27137e-07
-8.24259e-08 1.0446e-06 -7.26168e-08
-2.06241e-08 1.10794e-06 -1.06468e-07
3.20713e-07 5.90034e-07 -3.68693e-08
-2.60613e-08 2.70479e-08 3.37801e-08
1.60835e-06 2.5673e-06 -8.91531e-07
1.81093e-06 1.86769e-06 -3.8965e-07
-8.98689e-08 2.06893e-06 -9.63211e-07
-3.30523e-08 3.81204e-09 -9.20005e-09
3.42482e-05 2.23284e-05 3.15932e-05
2.73159e-05 2.17398e-05 2.86088e-05
8.12761e-09 -3.82996e-10 -1.18098e-08
4.4949e-09 7.86167e-08 3.52928e-08
4.01077e-05 2.30268e-05 -2.94259e-05
1.67248e-08 1.35283e-07 6.60476e-08
2.54588e-08 2.82828e-08 5.72098e-08
4.20712e-08 2.40267e-08 5.73454e-08
3.65406e-07 3.70871e-07 -3.04021e-07
2.75733e-08 2.4345e-08 4.5043e-08
2.86757e-06 5.86002e-06 -1.04802e-06
3.67516e-06 4.21438e-06 -5.88758e-07
1.40498e-08 6.75275e-08 8.79352e-08
-1.25752e-08 7.30288e-08 2.09977e-08
-2.66212e-08 1.42425e-08 2.98415e-08
-1.39576e-08 4.4037e-10 8.39442e-09
7.06301e-06 1.4963e-06 -3.96976e-07
8.91588e-06 2.20588e-06 -3.44348e-06
-2.46885e-06 2.07546e-06 1.29571e-07
-1.65277e-07 3.74673e-07 4.35442e-08
2.34724e-06 9.34837e-07 -2.01531e-07
-6.07533e-08 8.05489e-08 7.93368e-09
-2.51031e-08 9.45314e-08 -5.27399e-09
-1.76314e-06 1.11884e-07 6.78461e-07
-2.00009e-06 4.57855e-07 -3.14386e-07
-8.97395e-07 2.14122e-07 -9.05918e-08
-1.05272e-06 1.26313e-07 -3.56226e-07
-7.37813e-08 9.87306e-08 -6.3291e-08
-4.30417e-07 3.63576e-07 2.71683e-09
4.90321e-07 1.64466e-07 -2.56307e-07
4.90048e-07 1.82777e-07 -2.06265e-07
-4.51606e-07 3.74435e-07 7.87067e-09
6.8124e-07 4.88399e-06 7.47057e-08
1.72926e-06 4.19263e-06 1.58842e-08
1.16641e-06 3.76788e-06 1.73964e-07
1.36779e-08 1.56281e-08 5.63042e-08
7.30492e-06 1.56932e-06 2.40217e-07
8.11393e-06 1.73414e-06 -1.0931e-06
-1.46998e-06 6.4759e-06 -1.13244e-06
1.31328e-08 -2.15685e-09 1.56077e-08
1.94589e-06 4.28043e-06 6.06964e-08
3.71565e-06 7.68591e-06 4.02737e-06
4.6695e-06 5.83069e-06 2.55098e-06
8.58102e-06 7.46689e-06 3.52635e-06
1.1234e-07 4.17805e-07 7.14881e-08
8.07209e-08 5.37945e-07 5.23468e-08
-3.23824e-07 1.52507e-06 1.7513e-07
-8.09472e-08 8.54297e-07 1.02856e-07
6.72001e-07 2.93188e-07 1.46531e-07
3.58223e-07 5.29086e-07 1.08189e-07
1.89615e-06 6.41257e-07 -2.86239e-08
2.48162e-06 1.02519e-06 3.54685e-07
-3.85028e-08 1.08216e-09 3.01217e-08
-3.29081e-08 -2.48338e-09 1.56761e-08
7.55264e-08 1.84095e-08 -8.11326e-08
5.95782e-08 8.2629e-09 -4.92736e-08
-2.21853e-08 7.36954e-08 1.11002e-07
1.56327e-08 6.03272e-08 1.18169e-07
-1.55946e-08 6.22946e-08 1.03751e-07
2.6573e-07 1.013e-07 2.03146e-07
3.96393e-07 2.41152e-07 -6.14878e-08
5.58141e-07 2.62677e-07 1.40956e-07
2.3444e-08 7.50101e-08 -8.18325e-08
1.26978e-08 7.647e-08 -7.80809e-08
-3.93125e-08 5.7448e-07 -3.32874e-07
3.43811e-08 3.35481e-07 -1.99555e-07
-5.56056e-07 3.17986e-06 -5.69876e-07
-1.14058e-06 2.36993e-06 -4.32216e-07
-1.44169e-08 6.31005e-08 -5.5883e-08
2.05366e-07 -3.62432e-09 -4.07134e-08
-2.15529e-08 5.33273e-09 1.23837e-08
1.3388e-08 3.314e-08 -5.12601e-08
-1.44777e-06 3.91757e-06 -1.70291e-07
-7.93072e-08 3.69183e-07 -2.74125e-07
-1.41436e-07 3.20045e-07 -2.25649e-07
1.9599e-05 2.73936e-05 2.70474e-05
1.64078e-06 8.43998e-07 1.21777e-06
7.84016e-05 6.83784e-06 6.67893e-06
8.78079e-05 7.10518e-06 -4.22423e-06
7.22252e-05 7.26252e-06 -1.22745e-05
8.49733e-05 6.90489e-06 -1.22252e-06
1.8392e-06 8.27304e-07 1.13829e-06
1.88544e-05 2.29819e-05 2.19378e-05
1.75538e-05 2.29709e-05 2.02001e-05
4.55557e-08 2.90708e-08 -8.11664e-08
-2.55191e-08 5.722e-09 -2.83884e-08
-1.25587e-08 4.72581e-09 -5.1643e-08
5.11869e-08 1.82235e-08 -6.72759e-08
2.30807e-08 8.39065e-09 -3.29164e-08
1.38169e-07 2.43231e-07 8.63211e-08
1.02305e-07 3.59825e-07 2.15164e-07
-6.30301e-07 8.03077e-08 2.38228e-07
-1.97994e-05 8.38762e-06 -8.25525e-06
-2.10378e-05 8.2816e-06 -8.60022e-06
-8.5444e-07 7.85035e-07 -2.17842e-07
2.11757e-07 2.03105e-07 -1.64963e-07
3.63063e-07 3.84069e-07 1.09631e-07
1.87659e-07 5.14111e-07 -2.72608e-07
1.76636e-07 2.15836e-07 -1.44984e-07
1.27456e-07 4.64375e-09 7.59596e-08
1.04449e-07 5.53296e-08 1.33551e-07
6.58292e-08 3.3231e-08 8.62683e-08
1.14246e-06 1.54671e-06 -1.04536e-07
1.26726e-06 1.74246e-06 -1.07394e-07
-3.84132e-05 1.70277e-05 -2.59993e-05
-9.66129e-08 2.05067e-07 4.45262e-09
3.47633e-08 6.77402e-09 2.28187e-08
-2.96047e-08 6.98328e-08 1.26817e-07
6.06549e-07 1.85776e-06 -1.96666e-07
6.35698e-07 1.34313e-06 -1.64741e-07
-5.46573e-08 9.21644e-08 -1.77317e-09
1.16769e-07 1.85956e-07 4.40507e-09
-1.08325e-07 1.63981e-07 -1.20043e-08
-1.6688e-05 1.26697e-06 -4.76805e-07
2.67875e-09 1.07963e-07 -5.21661e-08
-3.7737e-09 9.19619e-08 -4.57071e-08
-1.03817e-05 3.82425e-08 -1.66839e-06
7.85285e-07 7.20486e-07 -2.48605e-07
-1.39771e-05 2.81909e-06 2.12151e-06
-1.12251e-08 1.02342e-07 2.1475e-09
1.59696e-06 5.97517e-07 1.20467e-07
1.77518e-06 4.70854e-07 4.54755e-07
2.42863e-09 6.7276e-08 -3.47521e-08
-9.18163e-09 7.96497e-08 2.41986e-08
1.13632e-07 2.02962e-07 -1.21047e-07
1.79497e-08 -1.06578e-08 -1.75477e-08
1.77223e-08 3.07258e-10 -3.66221e-08
4.4378e-07 4.5924e-07 -1.20862e-07
5.50791e-07 3.86634e-07 6.82256e-08
2.60387e-06 2.03669e-06 8.01336e-07
3.05829e-05 2.42736e-05 3.10907e-05
2.3693e-05 2.40822e-05 2.8811e-05
1.76225e-08 7.96546e-10 3.11998e-09
-1.57488e-08 1.88318e-10 -1.54519e-08
2.39443e-05 2.37203e-05 2.64868e-05
3.57583e-07 9.58723e-08 1.53794e-07
1.82784e-07 1.42667e-07 1.53694e-08
-2.16957e-08 5.58407e-08 -1.37678e-09
-1.06445e-07 2.06554e-07 1.85554e-07
-9.4802e-08 2.26823e-07 1.86342e-07
-4.35521e-07 3.45782e-06 2.94076e-07
-1.01864e-07 4.3211e-08 4.05544e-08
-2.48946e-08 1.23965e-07 9.77214e-08
-2.49722e-05 3.01737e-05 -5.03699e-05
-2.01e-05 2.89209e-05 -4.40446e-05
-5.88609e-07 3.44886e-06 3.07271e-07
1.06967e-06 1.18731e-06 -2.28778e-07
-1.96207e-07 2.95277e-06 3.92026e-07
-2.63328e-09 -3.63836e-09 -2.27374e-08
3.56066e-07 7.77365e-07 -1.9032e-07
6.72211e-06 3.34551e-05 -3.2833e-05
4.16338e-07 5.65382e-07 -7.29934e-08
9.01281e-07 6.05206e-07 6.09542e-07
5.92946e-08 1.04524e-07 -5.2579e-08
-3.2704e-08 4.72729e-08 3.03526e-08
8.92965e-09 2.13801e-09 -3.3699e-09
-4.2526e-09 3.22232e-09 -2.0838e-08
-1.98737e-05 1.92882e-05 -1.89638e-05
-3.02705e-08 6.24937e-08 9.7587e-08
1.25105e-06 4.76543e-07 -1.53594e-07
-5.51523e-09 -2.69259e-09 2.18581e-09
6.96996e-08 1.34211e-07 1.46989e-07
2.25711e-08 8.70009e-10 2.29815e-08
1.36145e-05 2.35668e-05 -1.74378e-05
2.59016e-07 8.93312e-08 -1.04429e-07
1.34963e-05 2.40919e-05 -1.98955e-05
0.000302035 1.38413e-06 -4.17908e-05
0.000279233 4.46184e-06 -4.82386e-05
1.61449e-08 9.96837e-08 9.56793e-08
0.000169184 2.99403e-05 -8.59275e-05
1.41548e-08 1.12373e-07 9.1941e-08
-5.07654e-08 6.6061e-08 1.25738e-08
-5.91605e-08 4.80754e-08 -5.65252e-09
4.39517e-08 1.5478e-07 1.30777e-07
1.02155e-06 1.05496e-06 -3.34789e-07
1.4667e-08 2.98045e-10 -9.55289e-09
3.42954e-07 2.64832e-07 -8.73653e-08
3.39913e-05 3.26995e-05 -3.56613e-05
3.44894e-07 1.87164e-07 7.526e-08
3.49175e-07 1.50858e-07 1.36191e-07
3.55147e-07 1.78873e-07 1.15527e-07
3.18769e-05 2.46257e-05 3.45149e-05
-8.91656e-08 4.80583e-08 -1.64571e-08
-7.81801e-08 4.11695e-08 -4.50416e-08
-1.72671e-07 1.0145e-07 -8.56593e-09
-3.0454e-07 2.55753e-07 -6.67622e-08
3.58559e-05 2.83641e-05 3.92139e-05
7.32674e-06 3.77145e-06 -1.1078e-06
3.09575e-06 4.42852e-06 -2.07725e-06
3.41174e-06 4.44031e-06 -1.92503e-06
0.000195363 7.20409e-06 -2.49031e-05
0.00018302 8.07015e-06 -2.28622e-05
4.24284e-06 3.76456e-06 -1.50376e-06