# vtk DataFile Version 2.0
S, Created by Mohamad Ibrahim Cheikh
ASCII
DATASET UNSTRUCTURED_GRID
POINTS 10490 double
-223.577 20.3394 -34.7912
-223.728 23.2863 -32.7656
-130.489 -29.2986 69.2886
-194.383 -37.8828 -41.0232
-207.468 29.511 40.0417
-235.875 27.4007 13.4741
-191.273 -39.7115 -41.0832
14.3799 -3.1017 87.8013
-191.056 39.2318 -41.6635
-193.395 36.941 -42.4293
-251.146 3.21344 -3.38141
-251.007 5.46327 -0.715208
-204.325 29.3043 -42.1182
18.572 -1.46292 87.7475
-201.227 30.3653 -43.1793
-151.282 68.7495 -14.6815
-148.475 69.9612 -12.2659
241.381 21.7609 -11.7085
240.378 24.3449 -8.78208
39.1823 72.994 -47.2007
43.0294 72.2725 -47.8957
45.3847 -3.17582 -86.497
49.2497 -1.49367 -86.2833
-145.562 -45.4915 -55.5015
-142.058 -46.9157 -55.4277
-191.797 -27.362 49.9158
-189.472 -30.0406 49.4606
-64.3404 -67.8331 51.3405
-66.4835 -66.014 53.3386
-121.225 -41.6765 -64.8683
-205.484 44.6106 24.1756
-208.427 41.8751 25.9201
-64.8739 -22.5492 81.9773
-61.2463 -23.9072 81.9341
44.2856 4.22737 86.5218
-201.398 -44.9171 27.5776
-50.937 82.8511 -23.7075
-47.6905 82.5574 -25.4916
-109.54 -78.4117 -11.2493
-105.514 -79.2425 -10.0786
-195.487 42.6448 35.3087
-200.946 -43.0026 30.8399
-54.4233 -15.2858 84.5442
3.49599 8.32672 87.5966
226.254 36.0727 -13.2455
223.493 37.2794 -15.4579
-146.977 22.435 -67.793
-143.818 23.7079 -68.1882
-167.022 -43.022 -49.7768
-163.504 -43.4767 -50.8014
-215.266 -7.15606 -44.9383
-215.165 -3.16007 -45.4527
-105.62 -17.5835 77.904
-104.082 -21.1211 77.2761
-247.96 -12.5213 7.72453
-247.222 -12.2233 10.5723
-226.223 -18.8448 33.5152
-129.022 -40.8332 -63.5499
238.447 4.07576 -27.6837
236.191 2.11817 -30.1596
30.6449 -3.68888 -87.2664
26.6761 -1.942 -87.482
-224.96 -22.5386 32.2515
-47.6612 -75.871 41.3458
-235.553 -26.7704 15.3058
-110.05 51.2945 -60.2505
-237.92 -25.2886 13.1993
-16.8481 -1.39709 -87.7912
-20.0171 -3.95548 -87.6316
25.2936 7.63142 -87.2206
27.3171 3.79065 -87.3972
25.4176 1.77649 -87.5314
45.9525 -6.29168 -86.2896
-242.159 -16.9742 16.6268
249.587 -5.36879 -9.40941
249.11 -2.30244 -11.8809
-169.136 48.1727 43.8297
30.4721 -13.4573 -86.3089
-165.507 47.9462 45.7325
-244.371 -14.4426 14.9734
243.986 6.92816 20.1945
244.544 3.56458 20.2422
-218.53 -34.2525 26.9087
-142.145 -69.4108 21.2698
-139.63 -70.7397 18.7868
-221.095 -32.056 27.0486
-157.97 -59.7994 33.3593
-205.034 32.4675 39.2811
-154.318 -61.3632 32.6033
21.3218 7.44586 87.3665
-119.034 18.5617 75.2644
-116.368 20.6547 75.2297
25.5776 -59.0293 64.6486
29.1117 -57.6567 65.6958
-134.465 55.0993 -49.9443
-136.735 52.6011 -51.8471
-177.085 57.924 23.4414
-176.674 59.4016 19.8481
-69.4564 65.6054 -53.3788
-62.7184 16.9613 -83.5148
-66.3385 16.928 -83.1784
-65.9389 67.1901 -51.9343
124.444 57.752 50.1268
121.01 58.3589 50.4522
-132.441 -69.8469 26.7941
-132.815 -68.0008 30.988
-188.848 35.1287 46.2999
-185.101 37.3015 46.4526
-232.725 13.1754 -30.6504
-59.0275 75.6182 39.9913
-60.3367 77.1278 36.7368
-231.927 16.7997 -29.6014
-175.27 -46.9576 -42.1659
-178.782 -11.2239 60.8669
-181.795 -8.37332 60.2299
-195.809 53.7592 12.6418
-198.361 52.0727 14.6688
-195.137 -6.40196 -55.1459
-196.108 -2.3615 -55.0449
-155.749 25.0912 64.378
-159.442 22.5012 64.2285
-196.21 -54.5516 -7.39882
-193.182 -56.048 -5.79637
-90.6869 75.358 -32.5314
-86.6807 75.7704 -32.9083
-39.2321 -78.9666 -36.3294
-42.7329 -77.6535 -38.6053
-35.6851 20.7349 -84.6059
-119.248 -59.0751 -50.1315
-116.053 -58.3871 -51.8269
-103.565 -58.9091 54.4111
-107.459 -57.2164 55.286
-176.037 46.9197 -41.8155
26.8971 14.1047 -86.3509
23.7515 15.8428 -86.1623
-175.592 44.5891 -44.5083
-89.441 -39.5816 72.0964
-93.3095 -38.4389 72.1144
-1.70818 -75.0112 -46.0104
2.63087 -75.2479 -45.617
-158.02 -33.1928 -59.8758
-154.736 -36.6298 -58.9142
24.9869 73.1956 48.0621
27.5381 71.2089 50.798
-166.537 38.8315 53.2968
-168.954 36.4607 54.0351
126.635 60.2662 46.3533
124.975 62.2382 44.2515
55.9033 20.2718 83.3693
-158.135 12.6627 67.2465
-155.541 9.86128 68.4454
-43.2067 74.105 -44.9876
70.8484 53.1258 -65.6286
-40.4268 75.7439 -42.5061
222.064 -27.8281 -30.5326
225.276 -26.0123 -29.2253
-15.644 80.3587 -35.4474
-18.5817 79.1582 -37.8907
247.477 -7.06408 13.9945
245.671 -9.07238 16.5073
-182.886 19.8639 57.0478
-181.346 22.7079 56.5868
-54.8969 69.1686 50.8993
-52.6165 71.0336 48.5725
-221.67 26.3884 -32.1206
245.288 -12.7014 14.713
-123.333 -44.6568 -62.3497
-128.466 -46.8983 -59.3634
-126.779 -44.2462 -61.7937
-219.064 -11.0512 41.7921
-206.36 49.8839 -6.47934
-208.044 48.5219 -9.51696
-173.561 -35.1369 53.1167
-196.132 -34.8661 -42.6467
-56.8033 10.7018 85.0555
-98.9551 80.7584 4.8202
-149.825 -21.4636 67.3427
-153.216 -21.7078 66.3226
-105.155 79.9077 2.22872
-102.771 80.1408 5.32456
-208.259 -1.82384 -49.3016
-211.701 -0.423325 -47.5061
6.86515 77.1306 -42.2978
8.16588 75.3248 -45.4093
-13.1551 86.2538 -16.8252
-17.2148 85.5898 -19.5474
11.9208 74.7057 -46.3212
-209.313 34.9114 -34.0773
-209.414 37.4898 -31.1357
-243.667 12.2934 -17.9918
-205.983 40.1012 -30.6809
-237.951 16.7329 23.0639
-240.123 13.5383 22.3945
-198.664 34.6918 41.3339
-44.0839 -51.8549 -69.4056
-47.9296 -52.1718 -68.8538
-63.6137 78.7581 -32.3376
-60.4268 79.7263 -30.6704
-198.893 37.6903 38.4745
-195.371 39.9894 38.3626
193.192 51.8484 -22.0509
191.206 51.6133 -24.5772
-17.0687 73.4268 -48.1335
-16.0448 71.6287 -50.8115
-160.702 -8.67045 67.1344
-158.246 -5.13851 68.2036
-159.176 -12.1822 67.034
-155.582 -13.9434 67.7206
-181.215 -39.3666 -46.6237
-187.066 -34.893 -47.3516
234.201 -8.19798 31.0077
231.367 -8.83946 33.3482
-185.722 -37.8044 -45.7368
-220.423 -36.3319 -21.8075
-223.2 -33.1947 -23.2995
-73.7166 69.853 46.8963
-199.237 43.3805 -31.6574
-202.401 40.5254 -32.9576
-78.5372 72.1284 42.2651
-74.6381 72.0219 43.299
-199.862 -47.1003 -25.2008
-196.405 -49.1626 -24.5823
-156.237 -38.5593 57.1722
-155.212 -34.6011 59.9776
-162.886 56.2764 -36.4509
-159.732 58.1034 -35.2741
245.94 -16.0777 8.95243
246.756 -13.0532 10.9097
-202.186 25.1273 -45.9104
246.469 -16.6405 5.45943
-222.675 -40.7292 -3.81041
-219.564 -42.6763 -4.53565
-225.907 36.4577 -12.9114
-224.081 36.2179 -16.8753
-228.9 -34.8682 10.6503
-231.376 -33.5771 7.89205
-225.472 -37.7617 9.69444
119.543 74.8291 19.8753
-172.163 -51.1026 -38.7774
115.347 75.645 19.8222
47.9226 12.1874 -85.5237
51.5088 10.7845 -85.4568
-180.219 -22.1706 57.2368
-179.922 52.3299 -32.2843
-165.445 0.850765 66.273
-168.568 2.82947 65.2466
-181.018 -17.4123 58.5584
36.4517 -59.7518 63.3328
37.7863 -57.2048 65.55
-159.984 -59.9392 -31.9015
-182.766 -21.797 -56.3852
-184.309 -18.0286 -57.0968
-11.9258 15.2019 -86.5765
-188.59 -54.9977 19.102
-192.466 -53.121 19.6705
-145.921 9.3472 -71.0613
-143.725 12.1555 -71.1843
-174.34 52.4384 35.6792
-173.41 50.732 38.583
-187.162 39.7333 -43.3193
-231.492 33.5008 -7.79803
-229.087 35.9745 -4.9583
-234.899 30.8748 -5.94427
241.404 7.72121 23.4446
239.892 10.8372 24.1019
240.609 13.4022 21.8297
-138.878 -61.8297 -39.494
-138.123 -60.1618 -42.2947
-141.494 -58.2486 -43.5886
-200.351 -41.1634 -33.6921
-218.714 20.1188 -38.5057
-52.632 9.13501 85.5652
-56.6793 -81.1827 27.5691
-60.1938 -81.4605 25.7797
-152.59 56.1733 41.6884
-153.33 58.0733 38.6414
-189.411 -9.89409 -57.0415
-186.063 -8.87738 -58.5383
64.9149 -8.70011 84.5718
67.8937 -7.05905 84.4383
-196.835 -37.2184 40.1916
-200.414 -34.6087 40.3572
-180.668 -48.2452 -37.6852
-174.531 -52.0915 -36.0706
-215.618 -38.5089 23.8564
-218.655 -36.4147 23.761
-178.254 -50.9815 -35.4222
-121.444 48.0051 -60.2813
-70.8732 59.9162 59.4902
26.871 -68.2972 54.6908
24.8066 -66.585 56.878
-87.1814 -8.56494 -82.0981
-84.0029 -6.25346 -82.7101
-29.2146 86.093 -15.0833
-33.1424 85.6479 -16.5516
-74.7112 60.3842 58.4327
-117.509 49.0631 -60.3842
67.0781 -10.9563 -84.1017
63.3284 -11.5642 -84.3757
-122.248 44.798 -62.5098
-75.7506 64.4005 -53.7963
-79.3089 64.5205 -53.0191
-210.937 -46.4387 -11.8317
-207.911 -47.2771 -14.7163
-70.3859 -66.9044 51.5874
-82.0839 62.0216 -55.4293
181.001 57.5737 -20.4515
187.79 54.7439 -20.7264
-57.9942 -57.7642 -63.2102
-60.2531 -59.9467 -60.8762
185.027 56.5072 -18.9619
-52.1987 5.0153 85.9375
170.803 -60.9399 -21.4146
166.658 -61.8362 -22.7993
-242.161 -11.2302 20.9366
-241.443 -7.71405 23.3974
231.622 25.8612 -22.5152
229.371 25.1807 -25.8602
225.984 27.6879 -26.9257
-235.385 -18.9686 -24.5117
-234.849 -16.6286 -26.7387
-226.062 27.1683 -27.3709
-222.946 28.4642 -29.1271
-220.764 31.3795 -28.1504
-250.634 -7.29332 -0.178686
-176.032 45.3145 43.5525
58.6052 51.3193 -68.4824
59.7061 48.492 -70.3994
128.091 68.3815 32.5458
131.585 68.3038 30.9637
-176.909 47.6275 40.5455
-181.013 46.7587 39.3204
18.7047 -86.4178 15.2686
142.026 69.364 -21.5187
141.082 68.3973 -25.0789
23.2384 -86.1703 15.8922
181.098 -44.0244 42.3152
25.6366 -86.6619 12.3796
-189.023 21.652 -53.8589
-189.444 17.9057 -55.0406
-212.327 -45.0142 14.0797
-120.843 -46.9996 -61.2142
-24.3215 -37.269 79.2628
52.2931 18.5679 -84.0502
55.8081 16.7795 -84.1495
-25.2931 -41.1184 77.2978
-119.139 -6.51824 -77.2252
-115.758 -7.7332 -77.7409
-200.044 16.4826 50.7242
-215.148 -43.2639 14.3206
-153.403 33.0861 61.3857
-156.824 31.3904 61.2177
-157.698 28.244 62.4627
-79.9681 -83.4309 0.602792
-62.5832 73.319 -43.4603
-62.0083 71.26 -46.8536
-79.8044 -83.3553 -4.02126
-209.642 -18.6804 44.8806
-59.241 71.8943 46.32
-205.671 -19.6721 46.6705
-191.283 -46.3881 33.3545
-190.153 -45.0074 35.9371
-195.126 47.3305 29.024
-192.216 -42.6377 37.4511
-97.6407 19.9154 78.614
-94.0329 21.0603 78.8537
-195.846 -41.8713 35.9847
-247.68 -8.81089 12.4836
188.064 -42.0215 40.5961
184.93 -44.2656 39.9696
-127.06 75.5317 7.9006
-123.397 76.0753 9.60891
48.8273 1.72529 86.3084
130.443 15.5993 -73.6033
-179.667 46.5397 -40.3231
198.594 13.1816 52.3605
200.49 9.43528 52.2852
113.32 74.8994 23.7043
109.574 75.3577 24.3976
149.546 63.747 -30.6969
145.714 65.3567 -29.5466
-166.876 -45.6683 -47.4238
129.836 19.3629 -72.8368
-209.795 43.7101 -21.0896
-206.935 46.1337 -19.3124
126.461 20.2154 -73.3306
-61.88 -0.24301 85.2944
-59.1518 2.66741 85.4898
[...]
POINT_DATA 10490
VECTORS F double
1.33511e-08 3.06749e-08 7.42836e-09
1.25612e-07 8.88595e-08 -4.18577e-08
1.46955e-07 7.24047e-07 3.40046e-07
5.74814e-08 -7.57686e-09 -2.63488e-08
2.87907e-07 2.55788e-07 -5.88325e-09
1.81162e-07 1.93541e-07 -5.30556e-09
8.3746e-08 2.55473e-08 -7.24302e-08
-1.92895e-06 2.38938e-06 1.23085e-07
9.35679e-07 7.0805e-07 1.41404e-07
1.01495e-06 6.16268e-07 -2.98376e-08
1.21376e-08 7.33554e-08 -4.06792e-08
1.06425e-08 5.73396e-08 -1.93586e-08
1.01851e-07 3.50234e-07 1.83186e-07
-2.36407e-06 3.93561e-06 1.26874e-07
1.41823e-07 1.22033e-07 4.89813e-09
3.35778e-06 6.95334e-07 -9.79977e-07
4.30728e-06 8.00106e-07 -1.81981e-06
-1.10091e-08 2.11422e-08 1.15065e-08
-1.29845e-08 2.05024e-08 1.332e-08
-2.86151e-05 6.80045e-06 7.60849e-06
-2.79756e-05 5.24507e-06 4.8376e-06
-3.15371e-06 1.86118e-06 -2.70925e-07
-2.86982e-06 1.37852e-06 -2.24412e-07
3.07992e-08 2.16537e-07 -1.87373e-07
5.72335e-08 2.43697e-07 -2.24231e-07
1.66764e-08 1.68917e-07 1.0044e-07
1.41406e-09 1.44294e-07 8.8303e-08
-4.59809e-08 1.95573e-07 2.51344e-07
-1.9312e-07 1.5144e-07 1.57958e-07
2.49114e-07 2.09013e-07 -1.91283e-07
5.60849e-07 2.54471e-07 1.14061e-07
3.74759e-07 2.78647e-07 -8.12186e-08
1.52536e-07 2.99852e-06 8.39571e-07
-2.51892e-07 1.66852e-06 4.63798e-07
-2.04056e-06 3.05725e-06 -2.15032e-08
1.51588e-08 2.89476e-08 6.07029e-08
8.26371e-05 1.45777e-05 2.92069e-05
8.93273e-05 1.6942e-05 3.4408e-05
3.99949e-08 3.64515e-10 -5.02225e-08
3.45821e-08 -2.80025e-09 -2.23061e-08
6.40195e-07 3.48824e-07 1.26531e-08
2.79826e-08 2.95085e-08 6.34681e-08
2.78512e-07 2.85449e-06 5.3805e-07
-1.59976e-06 3.76338e-06 -3.49921e-07
-2.1889e-08 1.31796e-08 -9.8834e-09
-3.7183e-08 3.37677e-08 1.56159e-08
1.26783e-06 8.66757e-07 -4.96872e-08
1.12168e-06 1.56522e-06 2.54553e-07
-5.14179e-08 1.02694e-07 -6.76354e-08
-4.477e-08 1.1543e-07 -8.11458e-08
5.29465e-08 1.45187e-07 -5.41721e-08
6.92904e-08 1.54097e-07 -5.08719e-08
9.76302e-07 2.34477e-06 6.91288e-07
1.06887e-06 2.27515e-06 7.98102e-07
-4.00817e-08 9.80421e-08 1.4033e-09
-2.81188e-08 7.40262e-08 5.09002e-09
6.01701e-08 9.77614e-08 1.04692e-07
1.77446e-07 3.48383e-08 -6.64916e-08
-1.82055e-08 1.21341e-08 -1.74117e-08
-1.7188e-08 7.31639e-09 -1.59666e-08
-2.48141e-06 2.98324e-06 -2.32789e-07
-2.2761e-06 3.85896e-06 -1.70636e-07
1.39999e-08 8.75077e-08 7.31103e-08
-3.95001e-08 5.74239e-08 9.97989e-08
-1.0942e-08 1.25242e-08 1.28848e-09
1.12327e-05 5.93613e-06 2.54184e-06
-2.08772e-08 3.7144e-08 2.50951e-08
-3.2832e-07 4.75366e-06 -6.79357e-08
2.11318e-07 3.77974e-06 -1.76518e-07
-8.57468e-07 6.56782e-06 5.44213e-07
-3.21607e-06 5.19197e-06 1.02122e-07
-2.20157e-06 4.03771e-06 3.6786e-09
-1.28866e-06 2.14278e-06 -2.40256e-07
5.84493e-09 4.51619e-08 5.65281e-08
2.61338e-09 1.27279e-08 1.22346e-09
-3.32411e-09 4.45449e-09 -9.40039e-09
3.8424e-07 3.79146e-07 -2.35178e-07
9.53313e-07 1.61516e-06 -2.1063e-07
5.34747e-07 5.55729e-07 -3.45691e-07
1.28608e-09 2.89776e-08 3.05219e-08
-9.9857e-09 1.06692e-08 1.1109e-08
-3.03402e-09 1.09793e-08 2.55493e-09
2.04309e-08 1.56952e-08 4.02929e-08
2.75306e-08 6.44248e-09 4.35464e-08
1.42736e-08 3.61879e-09 2.66124e-08
1.6901e-08 1.8241e-08 3.85329e-08
4.02437e-08 3.45483e-08 8.52619e-08
2.41887e-07 2.94759e-07 -8.90538e-08
4.17671e-08 2.95625e-08 7.98445e-08
-5.01825e-07 4.7511e-06 -3.89922e-07
2.21819e-06 2.74788e-06 -2.48174e-07
2.06394e-06 3.19944e-06 -4.87554e-07
-2.53053e-08 2.02212e-07 1.85862e-07
-6.94511e-08 2.971e-07 2.64512e-07
4.69494e-06 2.82895e-06 1.5734e-06
5.55824e-06 2.4101e-06 6.50484e-07
4.48599e-07 3.36211e-07 -4.15873e-07
1.27666e-06 5.69594e-07 -3.13386e-07
2.41986e-05 1.78262e-05 1.80542e-05
1.9402e-06 2.03173e-06 2.34239e-07
1.70354e-06 7.66435e-07 -1.03619e-08
2.33605e-05 1.99208e-05 2.21412e-05
-1.02341e-06 3.26368e-07 -6.49523e-08
-1.0837e-06 3.81675e-07 -1.23257e-07
4.15383e-09 1.35721e-08 3.78943e-08
1.57744e-10 1.88015e-08 4.13409e-08
1.01342e-06 5.40197e-07 9.621e-08
1.00696e-06 6.58326e-07 -3.73871e-08
6.01784e-08 8.43603e-08 -1.96787e-08
4.3943e-05 2.03216e-05 -3.04845e-05
4.4104e-05 2.00988e-05 -3.33282e-05
3.46177e-08 8.69314e-08 1.61288e-08
4.42773e-08 -2.28514e-08 2.915e-09
4.52394e-07 3.86302e-07 2.3392e-07
2.27238e-07 1.44181e-07 1.04017e-07
6.62834e-07 3.60425e-07 -2.75748e-07
7.96571e-07 3.79983e-07 -3.01099e-08
-6.17597e-09 1.16729e-07 -1.08762e-08
1.23856e-07 1.61278e-07 -6.09433e-08
4.05208e-07 2.35075e-06 -7.96181e-07
1.2456e-06 9.60484e-07 4.20818e-08
8.22667e-09 -2.06164e-09 -1.1508e-08
-1.20213e-09 -7.42865e-10 1.20873e-08
2.5465e-05 7.04864e-06 7.63674e-06
2.67077e-05 8.72883e-06 1.1485e-05
-4.39557e-08 5.02745e-08 -1.03467e-07
-2.97231e-08 6.50719e-08 -1.26861e-07
9.84725e-07 9.45388e-06 2.26606e-06
1.27463e-07 1.56143e-07 -2.2112e-07
1.24649e-07 1.81242e-07 -2.38356e-07
4.28067e-08 1.53154e-07 1.7579e-07
9.03122e-08 2.45486e-07 2.75549e-07
2.33621e-06 7.23582e-07 -3.9221e-07
-5.52681e-07 6.12075e-06 9.78697e-07
-2.22283e-06 3.61254e-06 5.89229e-07
7.41846e-07 1.18278e-07 -2.39827e-07
2.59723e-07 5.93854e-07 3.6548e-07
3.16989e-07 9.04563e-07 5.32372e-07
-6.34425e-08 8.25629e-08 -1.34315e-07
-6.21794e-08 6.00117e-08 -9.94322e-08
1.24109e-07 2.34753e-07 -1.70239e-07
2.71777e-08 1.48303e-07 -1.00947e-07
-3.45314e-05 1.63113e-05 -2.26431e-05
-3.3628e-05 1.621e-05 -2.04912e-05
2.63326e-06 1.17208e-06 1.53415e-07
2.29817e-06 1.34144e-06 -2.53849e-08
-5.64694e-07 1.35409e-07 1.2825e-08
-1.36085e-06 1.65641e-08 4.47242e-07
-1.17794e-06 1.07458e-06 -1.64586e-07
9.63379e-07 1.0261e-06 8.41446e-08
2.68133e-07 2.76482e-07 3.47669e-08
4.4692e-05 3.0262e-05 4.45932e-05
-5.92595e-06 3.10724e-06 1.73208e-06
5.29716e-05 2.73382e-05 4.2547e-05
-2.33769e-09 7.68079e-09 -9.08162e-09
-1.5065e-09 6.01634e-09 -6.77662e-09
0.000114078 3.45461e-05 7.2151e-05
0.000101442 3.85052e-05 7.43514e-05
-8.17123e-10 -5.71114e-10 1.4788e-09
-1.36282e-09 6.16137e-10 2.82358e-09
3.85623e-07 5.53841e-07 -4.14918e-08
3.35724e-07 6.06934e-07 -1.11833e-07
3.82034e-05 2.88229e-05 -3.41236e-05
4.13847e-05 2.79487e-05 -3.53842e-05
1.96711e-07 7.72902e-08 -1.02709e-07
-4.1851e-09 -1.77299e-09 7.01258e-09
2.40972e-07 1.90715e-07 -1.94954e-07
1.19621e-08 1.27633e-07 -1.04002e-07
2.23989e-07 3.58714e-08 -8.19484e-08
1.22071e-09 1.34718e-07 3.64083e-08
5.43886e-07 2.90446e-07 1.15347e-07
5.86752e-07 3.16313e-07 4.23357e-08
9.92642e-08 1.4051e-07 1.32659e-07
9.03853e-08 3.95265e-09 -5.41237e-08
2.29843e-06 3.78237e-06 -2.87974e-07
2.8448e-05 4.39085e-06 -2.06292e-06
-3.55987e-08 2.78267e-07 7.89932e-08
-6.87697e-08 3.77309e-07 1.04045e-07
2.49359e-05 4.14675e-06 -4.6328e-06
2.68303e-05 4.53284e-06 -4.82191e-06
4.74369e-08 9.31424e-08 -2.79787e-08
6.62889e-08 1.86113e-07 -3.7825e-08
2.63592e-05 3.55736e-05 6.5393e-05
-6.99373e-06 3.049e-05 5.0423e-05
0.000200981 9.16784e-06 2.77578e-05
0.000182567 1.07461e-05 2.73667e-05
-6.66602e-06 2.68212e-05 4.30468e-05
2.9735e-07 2.21323e-07 3.12879e-09
8.50425e-07 4.62305e-07 -1.43634e-07
1.04173e-07 1.78959e-07 -5.04525e-08
7.66937e-07 5.84452e-07 1.33507e-07
6.94309e-08 2.04642e-07 -6.07671e-08
8.21362e-08 1.72344e-07 3.63608e-09
4.19442e-07 -1.73961e-07 3.92824e-07
4.3005e-07 3.17331e-07 -2.7053e-07
3.95827e-07 4.0146e-07 -3.37928e-07
5.45176e-05 1.74539e-05 2.93785e-05
5.85849e-05 1.63515e-05 2.83733e-05
6.93018e-07 -3.34434e-08 4.71375e-07
5.14692e-07 2.91232e-07 1.73343e-08
-7.39855e-08 3.52383e-08 3.49746e-09
-1.03514e-07 5.64793e-08 2.00133e-08
3.41242e-05 4.40765e-05 6.57564e-05
1.12298e-05 3.98992e-05 5.58116e-05
7.50391e-07 4.23869e-07 2.74658e-07
9.18392e-07 3.51721e-07 2.8738e-07
2.03565e-07 1.59774e-07 8.8216e-08
3.2076e-07 3.74554e-07 1.67341e-07
1.01051e-07 9.78545e-08 -1.30709e-07
1.14406e-07 7.61047e-08 -1.11416e-07
1.36851e-09 1.02695e-08 1.44968e-09
9.59088e-10 1.00979e-08 1.8634e-09
8.72882e-08 6.25847e-08 -9.51259e-08
3.5441e-09 2.54481e-09 -8.62593e-09
-1.16672e-09 4.65791e-09 -5.26659e-09
2.97708e-05 1.36192e-05 -1.45567e-05
7.75659e-07 6.15622e-07 2.45928e-07
8.0444e-07 5.81049e-07 1.09627e-07
2.56844e-05 9.66602e-06 -1.06524e-05
2.89051e-05 1.34984e-05 -1.63524e-05
4.0793e-09 1.36499e-08 -2.94718e-08
4.27633e-10 7.31042e-09 -1.50376e-08
7.10108e-08 2.69763e-07 2.05698e-07
2.06935e-07 2.50343e-07 2.09986e-07
1.55284e-06 1.08337e-06 8.23047e-07
1.93247e-06 9.75888e-07 5.36098e-07
1.83177e-09 6.92706e-09 6.28386e-09
5.18693e-10 7.40605e-09 7.42435e-09
3.24879e-07 2.31115e-07 -4.86754e-08
5.04496e-10 2.90418e-09 6.06323e-09
-2.82293e-08 1.98266e-08 -9.96398e-09
-2.14228e-08 9.85331e-09 3.4249e-08
3.06725e-07 2.34619e-07 5.43633e-09
3.96013e-07 3.08312e-07 1.78943e-08
1.2777e-08 -1.78171e-09 2.77871e-08
-2.04494e-09 1.15931e-08 4.19821e-08
2.05063e-09 -5.52775e-09 -1.56938e-08
-1.91316e-06 1.96859e-07 6.67638e-07
5.16266e-08 -2.01747e-08 -1.47528e-09
-1.98463e-06 2.49393e-07 4.6218e-07
5.59086e-07 1.44048e-06 2.43632e-07
4.86095e-07 9.70877e-07 1.58395e-07
1.14914e-07 3.20262e-07 1.68352e-07
1.52382e-06 5.19881e-07 -1.97046e-07
4.7476e-07 2.1121e-07 1.42393e-07
4.86576e-07 2.95031e-07 1.41113e-07
1.58847e-07 3.46792e-07 1.63236e-07
-3.92798e-08 1.97204e-07 1.88821e-07
-1.84794e-08 2.08727e-07 1.83459e-07
4.22758e-08 1.12489e-08 -4.70908e-08
6.93255e-08 6.37866e-08 -5.21703e-08
2.21751e-07 1.21749e-07 -1.2608e-07
5.70211e-07 8.63861e-06 1.50723e-06
7.48203e-09 9.77671e-09 3.71932e-08
2.38884e-09 8.46999e-09 2.57349e-08
1.06112e-06 7.42649e-07 -1.69087e-07
8.09726e-07 1.0481e-06 -2.11877e-08
1.72969e-06 1.08784e-06 -5.64053e-07
1.27012e-06 8.61004e-07 -4.33214e-07
1.05152e-06 1.01105e-06 3.71131e-07
3.52556e-07 2.97652e-07 -2.63337e-09
3.25828e-07 2.64438e-07 7.55015e-08
2.78221e-07 2.19552e-07 -2.05711e-07
-1.18087e-08 1.94769e-08 8.47239e-09
-8.1073e-09 2.43525e-08 -1.06902e-09
-8.46282e-09 2.38416e-08 -3.2161e-09
7.31998e-08 2.85198e-08 -7.61627e-08
1.38511e-08 5.49224e-08 -8.36615e-08
7.37265e-08 1.11964e-07 -1.78921e-07
-1.08495e-08 6.51433e-08 -7.16911e-08
1.2965e-07 2.01271e-07 1.50014e-08
3.35955e-06 5.79941e-06 -3.66148e-07
2.6272e-08 2.03634e-08 6.65748e-08
1.92077e-08 1.98291e-08 6.81462e-08
1.14877e-06 2.42257e-07 1.8837e-07
3.28782e-06 1.08785e-06 -3.76586e-08
1.39819e-07 2.4648e-07 -9.95956e-08
1.87801e-07 1.44763e-07 -9.50354e-08
1.37385e-07 5.81728e-07 4.6933e-08
-3.39054e-08 9.99361e-07 8.68844e-08
2.16502e-08 7.32698e-08 8.08305e-08
1.61759e-08 7.44552e-08 7.36837e-08
2.13803e-08 2.29445e-08 -4.19238e-08
1.88763e-08 3.74989e-09 -1.65971e-08
1.61792e-08 3.31645e-09 2.32576e-08
1.8305e-08 1.22486e-08 3.93932e-08
1.52468e-08 1.72765e-08 -3.42586e-08
7.05229e-06 3.87458e-06 1.34606e-06
2.53485e-05 1.82945e-05 -1.47283e-05
-4.43501e-09 2.26306e-07 2.82875e-07
-1.19265e-07 1.83259e-07 2.20903e-07
8.03449e-07 1.60168e-06 -2.71555e-07
6.94164e-07 1.91492e-06 -2.31098e-07
0.000148934 1.10672e-05 2.78515e-05
0.000135163 1.27822e-05 3.3006e-05
2.34453e-05 1.5943e-05 -1.28053e-05
7.09362e-06 5.07658e-06 2.43471e-06
-8.60565e-07 6.95403e-07 -1.74625e-07
-8.92599e-07 6.01411e-07 -1.64447e-07
4.66738e-06 3.84071e-06 1.63494e-06
2.24175e-05 1.62143e-05 1.55458e-05
2.0353e-05 1.31394e-05 1.22622e-05
1.37134e-09 -6.26379e-09 2.15941e-08
-2.10221e-08 1.53573e-08 -1.29731e-08
-1.39554e-07 6.70617e-08 6.3662e-08
1.91312e-05 1.31473e-05 1.12423e-05
-1.93998e-07 5.81378e-08 -4.65391e-08
-1.52648e-07 7.28906e-08 2.31943e-08
-4.52988e-07 2.80614e-07 -2.05554e-07
-2.79159e-07 1.59923e-07 -1.23653e-07
-1.90082e-07 7.33738e-08 -8.42534e-09
1.22265e-06 5.30431e-06 -2.18636e-07
9.46133e-09 5.26121e-09 -5.73272e-09
9.86096e-09 7.11146e-09 -1.04617e-08
-1.34893e-08 3.25064e-08 -1.66391e-09
7.86332e-09 2.27443e-08 1.74356e-08
-4.96953e-09 1.36336e-08 9.39962e-09
-1.45354e-08 2.74722e-08 1.09665e-08
-1.79767e-08 2.38766e-08 6.08044e-09
-3.18082e-08 5.53454e-08 -5.4333e-09
4.42199e-08 2.86979e-09 -4.9336e-08
2.69903e-07 3.16633e-07 4.13675e-08
2.73554e-07 1.54941e-07 -1.04938e-07
2.01084e-07 1.89839e-07 1.85444e-08
-2.27985e-08 9.62375e-08 -1.32004e-08
9.68849e-07 4.51521e-07 9.64319e-09
-4.01531e-06 3.71665e-06 2.3645e-06
-2.85742e-06 3.79437e-06 2.31693e-06
-1.01192e-06 4.37515e-08 3.95669e-07
-8.7825e-07 -5.92521e-08 5.87648e-07
1.50111e-06 7.10239e-07 -3.24135e-08
1.3724e-06 2.59603e-07 4.64795e-07
-1.50676e-08 1.00549e-08 5.91654e-08
-4.94757e-07 -1.95421e-08 -4.6278e-07
-8.55996e-07 6.115e-08 -4.22776e-07
-4.58507e-09 8.64725e-10 5.50784e-09
-1.18334e-08 6.7299e-09 1.32022e-08
-1.1074e-08 -6.03239e-10 -1.41109e-09
1.66139e-07 4.95616e-07 1.27857e-07
1.32223e-07 4.82467e-07 1.01236e-07
-2.70575e-08 2.23633e-08 2.1542e-08
3.43236e-07 2.40338e-07 -2.67486e-07
-4.80584e-08 2.73555e-07 1.26818e-07
-1.44208e-06 2.06405e-06 3.46137e-07
-1.3752e-06 1.9572e-06 2.7861e-07
-1.48084e-07 2.50737e-07 1.27447e-07
-8.03906e-08 1.03877e-06 -7.24945e-08
-1.86345e-08 1.10235e-06 -1.06258e-07
3.19788e-07 5.87348e-07 -3.64496e-08
-2.60411e-08 2.70338e-08 3.37753e-08
1.60349e-06 2.54449e-06 -8.80848e-07
1.80047e-06 1.85809e-06 -3.88073e-07
-8.197e-08 2.05797e-06 -9.55895e-07
-3.30337e-08 3.81066e-09 -9.04011e-09
3.38675e-05 2.19619e-05 3.10795e-05
2.70595e-05 2.13898e-05 2.81473e-05
8.18901e-09 -3.98633e-10 -1.1635e-08
4.48637e-09 7.8352e-08 3.51786e-08
3.98702e-05 2.28003e-05 -2.91458e-05
1.66821e-08 1.35003e-07 6.59067e-08
2.54559e-08 2.82459e-08 5.71564e-08
4.20388e-08 2.39966e-08 5.72858e-08
3.64301e-07 3.68985e-07 -3.01863e-07
2.75534e-08 2.43079e-08 4.49884e-08
2.86681e-06 5.80311e-06 -1.03418e-06
3.64895e-06 4.23873e-06 -5.99341e-07
1.40531e-08 6.74429e-08 8.78396e-08
-1.25227e-08 7.28251e-08 2.09847e-08
-2.64792e-08 1.41103e-08 2.96244e-08
-1.38671e-08 3.75499e-10 8.27054e-09
7.03697e-06 1.49073e-06 -3.96107e-07
8.87626e-06 2.19522e-06 -3.4242e-06
-2.46313e-06 2.07836e-06 1.29057e-07
-1.6713e-07 3.77087e-07 4.36563e-08
2.3268e-06 9.27318e-07 -1.99018e-07
-6.00564e-08 7.96014e-08 7.84835e-09
-2.47425e-08 9.34526e-08 -5.24785e-09
-1.77971e-06 1.20167e-07 6.61944e-07
-2.01635e-06 4.63126e-07 -3.21767e-07
-9.05189e-07 2.15638e-07 -9.20842e-08
-1.06271e-06 1.26969e-07 -3.60791e-07
-7.35499e-08 9.82675e-08 -6.29442e-08
-4.34489e-07 3.66041e-07 2.48619e-09
4.879e-07 1.63791e-07 -2.54753e-07
4.87682e-07 1.82003e-07 -2.05004e-07
-4.55906e-07 3.77604e-07 7.83857e-09
6.80744e-07 4.86032e-06 7.43135e-08
1.71716e-06 4.1795e-06 1.50585e-08
1.15825e-06 3.76558e-06 1.73119e-07
1.36893e-08 1.5613e-08 5.6288e-08
7.25649e-06 1.55902e-06 2.31959e-07
8.05795e-06 1.72189e-06 -1.08314e-06
-1.45407e-06 6.4739e-06 -1.13216e-06
1.31521e-08 -2.16964e-09 1.56074e-08
1.93609e-06 4.27734e-06 5.97687e-08
3.73053e-06 7.59088e-06 3.96882e-06
4.64178e-06 5.80153e-06 2.53955e-06
8.47653e-06 7.37565e-06 3.4843e-06
1.12438e-07 4.16879e-07 7.14461e-08
8.12161e-08 5.36076e-07 5.24178e-08
-3.25064e-07 1.51938e-06 1.74715e-07
-8.43927e-08 8.5342e-07 1.03106e-07
6.68842e-07 2.91865e-07 1.45519e-07
3.57869e-07 5.27234e-07 1.08103e-07
1.88805e-06 6.38815e-07 -2.78123e-08
2.46526e-06 1.01682e-06 3.49155e-07
-3.84744e-08 1.03953e-09 2.9972e-08
-3.28767e-08 -2.52083e-09 1.55319e-08
7.52905e-08 1.82602e-08 -8.0672e-08
5.94177e-08 8.16201e-09 -4.89741e-08
-2.22336e-08 7.36243e-08 1.10879e-07
1.56369e-08 6.02675e-08 1.18057e-07
-1.55778e-08 6.22229e-08 1.0363e-07
2.64834e-07 1.00973e-07 2.02401e-07
3.94767e-07 2.40013e-07 -6.07317e-08
5.55468e-07 2.61407e-07 1.40321e-07
2.33134e-08 7.46691e-08 -8.14484e-08
1.26051e-08 7.61634e-08 -7.77376e-08
-3.84332e-08 5.71716e-07 -3.31384e-07
3.48578e-08 3.34243e-07 -1.98915e-07
-5.75704e-07 3.18596e-06 -5.70076e-07
-1.15634e-06 2.38798e-06 -4.35228e-07
-1.44041e-08 6.28521e-08 -5.56312e-08
2.04333e-07 -2.81824e-09 -4.07092e-08
-2.13796e-08 5.20511e-09 1.225e-08
1.33312e-08 3.29837e-08 -5.10238e-08
-1.42942e-06 3.91734e-06 -1.70258e-07
-7.8576e-08 3.68581e-07 -2.73686e-07
-1.40514e-07 3.19765e-07 -2.25467e-07
1.94416e-05 2.69658e-05 2.66344e-05
1.63269e-06 8.38801e-07 1.20724e-06
7.7706e-05 6.76919e-06 6.77626e-06
8.69728e-05 7.02488e-06 -3.9824e-06
7.1691e-05 7.17655e-06 -1.19337e-05
8.42199e-05 6.82128e-06 -1.03745e-06
1.83335e-06 8.22664e-07 1.12376e-06
1.86977e-05 2.26827e-05 2.16594e-05
1.73652e-05 2.26861e-05 1.99618e-05
4.54349e-08 2.89389e-08 -8.08715e-08
-2.54558e-08 5.69501e-09 -2.81583e-08
-1.24992e-08 4.70592e-09 -5.14359e-08
5.1044e-08 1.81e-08 -6.69851e-08
2.29974e-08 8.30233e-09 -3.27048e-08
1.37497e-07 2.4209e-07 8.59329e-08
1.01973e-07 3.57792e-07 2.13795e-07
-6.26905e-07 8.06957e-08 2.35043e-07
-1.95507e-05 8.25009e-06 -8.11527e-06
-2.08179e-05 8.09005e-06 -8.37855e-06
-8.48934e-07 7.87961e-07 -2.18628e-07
2.1064e-07 2.0221e-07 -1.64179e-07
3.6206e-07 3.82472e-07 1.0939e-07
1.86774e-07 5.11485e-07 -2.71233e-07
1.75818e-07 2.14937e-07 -1.44353e-07
1.27407e-07 4.61675e-09 7.58926e-08
1.04409e-07 5.52664e-08 1.33437e-07
6.58062e-08 3.31877e-08 8.61881e-08
1.13657e-06 1.53925e-06 -1.03962e-07
1.26107e-06 1.73397e-06 -1.06831e-07
-3.74042e-05 1.6866e-05 -2.58252e-05
-9.71215e-08 2.05399e-07 4.34604e-09
3.47818e-08 6.74087e-09 2.27612e-08
-2.9536e-08 6.9766e-08 1.26709e-07
6.03504e-07 1.84712e-06 -1.95542e-07
6.33165e-07 1.3402e-06 -1.64246e-07
-5.49604e-08 9.21952e-08 -1.87264e-09
1.16221e-07 1.85181e-07 4.49841e-09
-1.08817e-07 1.64224e-07 -1.21336e-08
-1.69278e-05 1.3424e-06 -3.92735e-07
2.65601e-09 1.08509e-07 -5.2438e-08
-3.84222e-09 9.24582e-08 -4.5964e-08
-1.0617e-05 1.01661e-07 -1.60663e-06
7.81753e-07 7.16331e-07 -2.46616e-07
-1.42183e-05 2.88757e-06 2.1887e-06
-1.11911e-08 1.02043e-07 2.23886e-09
1.5857e-06 5.9439e-07 1.17978e-07
1.7635e-06 4.6811e-07 4.51262e-07
2.41443e-09 6.70237e-08 -3.45829e-08
-9.139e-09 7.94347e-08 2.41679e-08
1.1321e-07 2.0216e-07 -1.20517e-07
1.79495e-08 -1.06981e-08 -1.74504e-08
1.77138e-08 2.53438e-10 -3.64896e-08
4.42075e-07 4.5697e-07 -1.19908e-07
5.48463e-07 3.84765e-07 6.81365e-08
2.58768e-06 2.02131e-06 7.93993e-07
3.02777e-05 2.38809e-05 3.05935e-05
2.34792e-05 2.36929e-05 2.83499e-05
1.76446e-08 7.97918e-10 3.12346e-09
-1.57337e-08 1.88401e-10 -1.5447e-08
2.37776e-05 2.3367e-05 2.60926e-05
3.56274e-07 9.5479e-08 1.53254e-07
1.8235e-07 1.42045e-07 1.55172e-08
-2.16275e-08 5.56884e-08 -1.35373e-09
-1.06376e-07 2.06319e-07 1.85343e-07
-9.46819e-08 2.26586e-07 1.86147e-07
-4.27088e-07 3.45098e-06 2.9388e-07
-1.01508e-07 4.28245e-08 4.03208e-08
-2.48759e-08 1.2377e-07 9.75597e-08
-2.28212e-05 2.98841e-05 -5.00367e-05
-1.83947e-05 2.88192e-05 -4.39959e-05
-5.80052e-07 3.44083e-06 3.06954e-07
1.06745e-06 1.18297e-06 -2.27516e-07
-1.91823e-07 2.94809e-06 3.91621e-07
-2.63896e-09 -3.74622e-09 -2.25922e-08
3.64814e-07 7.7818e-07 -1.88387e-07
7.00672e-06 3.316e-05 -3.25596e-05
4.20304e-07 5.71769e-07 -7.40155e-08
8.96642e-07 6.015e-07 6.04709e-07
5.90219e-08 1.04075e-07 -5.23124e-08
-3.26233e-08 4.71692e-08 3.03646e-08
8.97061e-09 2.1522e-09 -3.41428e-09
-4.24821e-09 3.2394e-09 -2.09236e-08
-2.01298e-05 1.91738e-05 -1.88506e-05
-3.01881e-08 6.23532e-08 9.74831e-08
1.24318e-06 4.74025e-07 -1.51051e-07
-5.53796e-09 -2.707e-09 2.15267e-09
6.96204e-08 1.33997e-07 1.46766e-07
2.25881e-08 8.29552e-10 2.29416e-08
1.349e-05 2.34185e-05 -1.7344e-05
2.57624e-07 8.92705e-08 -1.0409e-07
1.3459e-05 2.39316e-05 -1.9774e-05
0.000297976 1.08282e-06 -3.94939e-05
0.000275199 4.10149e-06 -4.61637e-05
1.61307e-08 9.95049e-08 9.55152e-08
0.00016923 2.85043e-05 -8.20569e-05
1.41469e-08 1.12162e-07 9.17789e-08
-5.08611e-08 6.57449e-08 1.23372e-08
-5.91618e-08 4.7878e-08 -5.76002e-09
4.38817e-08 1.54466e-07 1.30521e-07
1.01475e-06 1.04872e-06 -3.32626e-07
1.46159e-08 2.31262e-10 -9.41503e-09
3.41597e-07 2.63501e-07 -8.65202e-08
3.39002e-05 3.24221e-05 -3.53815e-05
3.43492e-07 1.86282e-07 7.51592e-08
3.47703e-07 1.50185e-07 1.35661e-07
3.53555e-07 1.78009e-07 1.15097e-07
3.16919e-05 2.41653e-05 3.38502e-05
-8.84711e-08 4.7638e-08 -1.66398e-08
-7.75699e-08 4.0821e-08 -4.49002e-08
-1.71284e-07 1.00406e-07 -8.32222e-09
-3.01828e-07 2.52963e-07 -6.58044e-08
3.56047e-05 2.78244e-05 3.84628e-05
7.29566e-06 3.79411e-06 -1.12969e-06
3.12295e-06 4.39053e-06 -2.04854e-06
3.44826e-06 4.42233e-06 -1.90763e-06
0.000193218 7.05946e-06 -2.45824e-05
0.000180934 7.91058e-06 -2.24839e-05
4.24665e-06 3.78882e-06 -1.51829e-06