# vtk DataFile Version 2.0
S, Created by Mohamad Ibrahim Cheikh
ASCII
DATASET UNSTRUCTURED_GRID
POINTS 10490 double
-223.577 20.3394 -34.7912
-223.728 23.2864 -32.7657
-130.489 -29.2979 69.289
-194.383 -37.8828 -41.0232
-207.468 29.5112 40.0417
-235.875 27.4009 13.4741
-191.273 -39.7115 -41.0832
14.378 -3.0993 87.8014
-191.055 39.2325 -41.6633
-193.394 36.9416 -42.4293
-251.146 3.21352 -3.38145
-251.007 5.46332 -0.715227
-204.325 29.3047 -42.118
18.5696 -1.45898 87.7477
-201.227 30.3654 -43.1792
-151.278 68.7502 -14.6825
-148.471 69.962 -12.2677
241.381 21.7609 -11.7085
240.378 24.3449 -8.78206
39.1535 73.0009 -47.193
43.0012 72.2778 -47.8909
45.3816 -3.17395 -86.4973
49.2469 -1.49229 -86.2835
-145.562 -45.4913 -55.5017
-142.057 -46.9154 -55.4279
-191.797 -27.3618 49.9159
-189.472 -30.0405 49.4607
-64.3404 -67.8329 51.3407
-66.4837 -66.0138 53.3387
-121.224 -41.6763 -64.8685
-205.483 44.6108 24.1757
-208.427 41.8754 25.9201
-64.8737 -22.5462 81.9781
-61.2465 -23.9055 81.9346
44.2835 4.23043 86.5218
-201.398 -44.9171 27.5777
-50.8548 82.8655 -23.6786
-47.6017 82.5742 -25.4576
-109.54 -78.4117 -11.2493
-105.514 -79.2425 -10.0787
-195.487 42.6451 35.3087
-200.946 -43.0026 30.84
-54.423 -15.283 84.5447
3.49439 8.33049 87.5963
226.254 36.0727 -13.2455
223.493 37.2794 -15.4579
-146.976 22.4358 -67.7931
-143.817 23.7094 -68.1879
-167.022 -43.0219 -49.7769
-163.504 -43.4766 -50.8015
-215.266 -7.15592 -44.9384
-215.165 -3.15992 -45.4528
-105.619 -17.5812 77.9047
-104.081 -21.1189 77.2769
-247.96 -12.5212 7.72453
-247.222 -12.2232 10.5723
-226.223 -18.8447 33.5153
-129.022 -40.8332 -63.5499
238.447 4.07578 -27.6838
236.191 2.11817 -30.1596
30.6424 -3.68589 -87.2666
26.6738 -1.93814 -87.4822
-224.96 -22.5385 32.2515
-47.6612 -75.871 41.3459
-235.553 -26.7704 15.3058
-110.039 51.3004 -60.2479
-237.92 -25.2885 13.1993
-16.8485 -1.39234 -87.7913
-20.0169 -3.9517 -87.6318
25.2927 7.63799 -87.2201
27.3139 3.79585 -87.3971
25.4154 1.78053 -87.5314
45.9512 -6.28953 -86.2898
-242.159 -16.9741 16.6269
249.587 -5.36878 -9.40941
249.11 -2.30244 -11.8809
-169.135 48.1731 43.8295
30.473 -13.4557 -86.3091
-165.507 47.9468 45.7322
-244.371 -14.4426 14.9734
243.986 6.92817 20.1945
244.544 3.56459 20.2422
-218.53 -34.2525 26.9088
-142.145 -69.4108 21.2699
-139.629 -70.7397 18.7868
-221.095 -32.056 27.0486
-157.97 -59.7993 33.3594
-205.034 32.4678 39.2811
-154.318 -61.3632 32.6034
21.3213 7.45061 87.3661
-119.032 18.5645 75.2642
-116.366 20.6579 75.2292
25.5775 -59.0291 64.6488
29.1116 -57.6564 65.6961
-134.46 55.1021 -49.9428
-136.729 52.6035 -51.8464
-177.085 57.9243 23.4409
-176.673 59.4021 19.8478
-69.4324 65.6232 -53.3609
-62.7164 16.9633 -83.5146
-66.3368 16.9288 -83.1784
-65.9157 67.2099 -51.9123
124.443 57.7523 50.1268
121.009 58.3593 50.4521
-132.441 -69.8468 26.7941
-132.815 -68.0007 30.988
-188.847 35.1293 46.3
-185.1 37.3022 46.4526
-232.725 13.1755 -30.6504
-58.9836 75.6384 39.961
-60.2927 77.1478 36.7037
-231.927 16.7998 -29.6014
-175.27 -46.9576 -42.1659
-178.782 -11.2235 60.8671
-181.795 -8.37317 60.23
-195.809 53.7595 12.6415
-198.36 52.0731 14.6688
-195.137 -6.40185 -55.1459
-196.108 -2.36134 -55.045
-155.749 25.0936 64.3772
-159.441 22.5022 64.2285
-196.21 -54.5516 -7.39883
-193.182 -56.048 -5.79636
-90.6615 75.365 -32.5238
-86.6541 75.7791 -32.8969
-39.2322 -78.9666 -36.3295
-42.733 -77.6534 -38.6054
-35.6842 20.7443 -84.6036
-119.247 -59.075 -50.1318
-116.052 -58.3869 -51.8272
-103.565 -58.909 54.4113
-107.459 -57.2161 55.2862
-176.035 46.9205 -41.8159
26.8966 14.1108 -86.35
23.7492 15.8464 -86.1617
-175.591 44.5892 -44.5085
-89.4407 -39.581 72.0968
-93.3092 -38.438 72.115
-1.70824 -75.0112 -46.0105
2.63081 -75.2478 -45.6171
-158.02 -33.1925 -59.876
-154.736 -36.6297 -58.9143
24.9529 73.2118 48.0395
27.5048 71.225 50.7777
-166.535 38.8327 53.2969
-168.952 36.462 54.035
126.635 60.2663 46.3533
124.974 62.2382 44.2519
55.9021 20.2728 83.3691
-158.134 12.6637 67.2466
-155.541 9.86156 68.4455
-43.162 74.135 -44.9434
70.8424 53.1289 -65.6268
-40.3737 75.771 -42.464
222.064 -27.8281 -30.5326
225.276 -26.0123 -29.2253
-15.5296 80.3927 -35.3762
-18.4799 79.1962 -37.8172
247.477 -7.06408 13.9945
245.671 -9.07238 16.5073
-182.886 19.8645 57.0478
-181.345 22.7085 56.5867
-54.8588 69.1973 50.8653
-52.5751 71.0613 48.5373
-221.669 26.3885 -32.1207
245.288 -12.7014 14.713
-123.332 -44.6566 -62.3499
-128.466 -46.8982 -59.3635
-126.779 -44.2462 -61.7937
-219.064 -11.051 41.7921
-206.359 49.8842 -6.47923
-208.043 48.5222 -9.51692
-173.561 -35.1368 53.1168
-196.132 -34.8661 -42.6468
-56.801 10.7056 85.0552
-98.9268 80.7627 4.81814
-149.825 -21.4633 67.3428
-153.217 -21.7074 66.3227
-105.13 79.9119 2.22414
-102.745 80.1453 5.31979
-208.259 -1.82374 -49.3017
-211.701 -0.423139 -47.5061
6.89379 77.1665 -42.2317
8.16026 75.3556 -45.3583
-12.9553 86.2628 -16.7979
-17.0333 85.6004 -19.5205
11.9156 74.7331 -46.2773
-209.313 34.9116 -34.0773
-209.413 37.4902 -31.1358
-243.667 12.2936 -17.9919
-205.982 40.1018 -30.6808
-237.95 16.7331 23.0638
-240.123 13.5385 22.3945
-198.663 34.6916 41.3343
-44.0835 -51.8546 -69.4059
-47.9292 -52.1714 -68.8542
-63.5595 78.7754 -32.3085
-60.3685 79.7425 -30.6423
-198.892 37.6902 38.475
-195.371 39.9897 38.3626
193.192 51.8484 -22.0509
191.206 51.6134 -24.5772
-17.0338 73.4708 -48.0678
-16.0329 71.6686 -50.7557
-160.702 -8.67003 67.1346
-158.245 -5.13815 68.2039
-159.176 -12.1821 67.0341
-155.581 -13.9431 67.7207
-181.215 -39.3665 -46.6238
-187.066 -34.8929 -47.3517
234.201 -8.19797 31.0077
231.367 -8.83945 33.3482
-185.722 -37.8043 -45.7369
-220.423 -36.3319 -21.8075
-223.2 -33.1947 -23.2995
-73.6869 69.8665 46.8817
-199.236 43.3812 -31.6572
-202.4 40.5259 -32.9575
-78.5116 72.138 42.2544
-74.6093 72.0354 43.2827
-199.862 -47.1003 -25.2008
-196.405 -49.1626 -24.5823
-156.237 -38.559 57.1724
-155.212 -34.6008 59.9778
-162.884 56.2775 -36.4501
-159.73 58.1043 -35.2735
245.94 -16.0777 8.95244
246.756 -13.0532 10.9097
-202.186 25.1275 -45.9104
246.469 -16.6405 5.45944
-222.675 -40.7292 -3.81042
-219.564 -42.6763 -4.53561
-225.907 36.4579 -12.9114
-224.08 36.2182 -16.8753
-228.9 -34.8682 10.6504
-231.376 -33.5771 7.89209
-225.472 -37.7617 9.69442
119.541 74.8293 19.876
-172.163 -51.1026 -38.7774
115.345 75.6452 19.8226
47.9232 12.1889 -85.5234
51.5093 10.7855 -85.4567
-180.219 -22.1703 57.2369
-179.92 52.3304 -32.2845
-165.444 0.850976 66.2732
-168.567 2.82976 65.2467
-181.018 -17.412 58.5585
36.4517 -59.7516 63.333
37.7862 -57.2046 65.5502
-159.984 -59.9392 -31.9015
-182.766 -21.797 -56.3853
-184.309 -18.0285 -57.0969
-11.9253 15.2105 -86.575
-188.59 -54.9977 19.1021
-192.466 -53.121 19.6706
-145.92 9.34794 -71.0615
-143.724 12.1565 -71.1843
-174.338 52.4395 35.6786
-173.409 50.7328 38.5826
-187.161 39.7343 -43.3189
-231.492 33.5011 -7.79803
-229.087 35.9747 -4.95822
-234.899 30.875 -5.94448
241.404 7.72123 23.4446
239.892 10.8372 24.1019
240.609 13.4023 21.8297
-138.878 -61.8296 -39.4941
-138.123 -60.1617 -42.2948
-141.494 -58.2485 -43.5887
-200.351 -41.1634 -33.6921
-218.714 20.119 -38.5057
-52.6287 9.1408 85.5648
-56.6793 -81.1827 27.5692
-60.1938 -81.4604 25.7798
-152.589 56.1735 41.6885
-153.326 58.0744 38.6414
-189.411 -9.89384 -57.0416
-186.062 -8.87724 -58.5384
64.915 -8.69953 84.5719
67.8936 -7.05805 84.4384
-196.835 -37.2183 40.1917
-200.414 -34.6086 40.3573
-180.668 -48.2452 -37.6852
-174.531 -52.0915 -36.0706
-215.618 -38.5089 23.8564
-218.655 -36.4147 23.761
-178.254 -50.9814 -35.4222
-121.437 48.009 -60.2799
-70.8479 59.9344 59.4755
26.871 -68.297 54.6911
24.8065 -66.5848 56.8782
-87.1806 -8.56334 -82.0984
-84.0022 -6.25155 -82.7104
-29.0666 86.1039 -15.0557
-33.0081 85.6605 -16.519
-74.6878 60.4 58.4199
-117.502 49.0681 -60.3818
67.0772 -10.9556 -84.1018
63.3275 -11.5636 -84.3759
-122.243 44.8019 -62.5082
-75.7283 64.4167 -53.7809
-79.2886 64.5336 -53.0069
-210.937 -46.4387 -11.8316
-207.911 -47.2771 -14.7163
-70.386 -66.9043 51.5875
-82.0649 62.0347 -55.4181
181.001 57.5738 -20.4515
187.79 54.7439 -20.7264
-57.9946 -57.7639 -63.2104
-60.2534 -59.9465 -60.8764
185.026 56.5072 -18.9619
-52.1975 5.02059 85.9373
170.803 -60.9399 -21.4146
166.658 -61.8362 -22.7993
-242.161 -11.2302 20.9366
-241.443 -7.71403 23.3974
231.622 25.8612 -22.5152
229.371 25.1808 -25.8602
225.984 27.688 -26.9257
-235.385 -18.9685 -24.5117
-234.849 -16.6286 -26.7387
-226.062 27.1687 -27.3709
-222.946 28.4644 -29.1272
-220.764 31.3797 -28.1504
-250.634 -7.29323 -0.1787
-176.031 45.315 43.5525
58.6012 51.323 -68.48
59.7032 48.4959 -70.3971
128.09 68.3815 32.5462
131.584 68.3037 30.9643
-176.908 47.6282 40.5455
-181.012 46.7589 39.3208
18.7047 -86.4178 15.2687
142.025 69.364 -21.5192
141.081 68.3974 -25.0793
23.2384 -86.1703 15.8922
181.098 -44.0244 42.3152
25.6366 -86.6619 12.3796
-189.023 21.6525 -53.8588
-189.444 17.9062 -55.0405
-212.327 -45.0141 14.0798
-120.843 -46.9993 -61.2145
-24.3215 -37.2687 79.263
52.2916 18.57 -84.0499
55.8067 16.7815 -84.1492
-25.2932 -41.1182 77.2979
-119.139 -6.5172 -77.2253
-115.758 -7.7321 -77.741
-200.044 16.4832 50.7241
-215.148 -43.2638 14.3207
-153.402 33.0886 61.3848
-156.822 31.3923 61.2173
-157.698 28.246 62.4617
-79.9681 -83.4308 0.602783
-62.5495 73.3408 -43.4295
-61.9813 71.2812 -46.8257
-79.8044 -83.3553 -4.02128
-209.642 -18.6803 44.8806
-59.2012 71.917 46.291
-205.671 -19.672 46.6706
-191.283 -46.388 33.3546
-190.153 -45.0073 35.9372
-195.126 47.3309 29.0237
-192.216 -42.6377 37.4512
-97.6379 19.9212 78.613
-94.0292 21.0645 78.8531
-195.846 -41.8713 35.9848
-247.68 -8.81082 12.4836
188.064 -42.0215 40.5961
184.93 -44.2656 39.9696
-127.053 75.5332 7.9002
-123.388 76.0775 9.60549
48.8249 1.72737 86.3085
130.443 15.5997 -73.6033
-179.665 46.5406 -40.3233
198.594 13.1817 52.3605
200.49 9.43538 52.2852
113.318 74.8995 23.7049
109.572 75.3582 24.3973
149.545 63.7472 -30.697
145.713 65.3568 -29.547
-166.876 -45.6682 -47.4238
129.836 19.3633 -72.8368
-209.795 43.7103 -21.0898
-206.934 46.1339 -19.3126
126.461 20.2157 -73.3306
-61.8793 -0.238159 85.2945
-59.1501 2.67158 85.4898
[...]
POINT_DATA 10490
VECTORS F double
1.33233e-08 3.06034e-08 7.40705e-09
1.25011e-07 8.8496e-08 -4.16128e-08
1.47082e-07 7.229e-07 3.3958e-07
5.72454e-08 -7.58623e-09 -2.6203e-08
2.8709e-07 2.5472e-07 -5.6169e-09
1.80465e-07 1.92755e-07 -5.20481e-09
8.33922e-08 2.53852e-08 -7.20719e-08
-1.92786e-06 2.39999e-06 1.23367e-07
9.31035e-07 7.04129e-07 1.40335e-07
1.00903e-06 6.13314e-07 -2.90933e-08
1.20835e-08 7.30528e-08 -4.0476e-08
1.05913e-08 5.70647e-08 -1.92116e-08
1.01829e-07 3.48529e-07 1.82016e-07
-2.36096e-06 3.94051e-06 1.26689e-07
1.41544e-07 1.22206e-07 5.18082e-09
3.35203e-06 6.98058e-07 -9.59768e-07
4.29721e-06 8.01596e-07 -1.79588e-06
-1.09818e-08 2.10441e-08 1.13914e-08
-1.29475e-08 2.04151e-08 1.32006e-08
-2.89879e-05 6.9368e-06 7.78586e-06
-2.84285e-05 5.24976e-06 4.79789e-06
-3.16248e-06 1.87532e-06 -2.71951e-07
-2.87876e-06 1.39485e-06 -2.25284e-07
3.06485e-08 2.15533e-07 -1.865e-07
5.70011e-08 2.42623e-07 -2.23247e-07
1.67009e-08 1.68486e-07 1.00214e-07
1.49657e-09 1.43936e-07 8.81233e-08
-4.59502e-08 1.95353e-07 2.51056e-07
-1.92749e-07 1.51351e-07 1.57902e-07
2.48161e-07 2.08126e-07 -1.90494e-07
5.58452e-07 2.53371e-07 1.13592e-07
3.73508e-07 2.77348e-07 -8.03556e-08
1.54642e-07 2.99208e-06 8.37885e-07
-2.46235e-07 1.67265e-06 4.65481e-07
-2.04164e-06 3.0557e-06 -2.14733e-08
1.51672e-08 2.88802e-08 6.05982e-08
8.17463e-05 1.43225e-05 2.86275e-05
8.83046e-05 1.66233e-05 3.37036e-05
3.98948e-08 3.48848e-10 -4.999e-08
3.45084e-08 -2.8031e-09 -2.21868e-08
6.38121e-07 3.47536e-07 1.27966e-08
2.7965e-08 2.94374e-08 6.33547e-08
2.7462e-07 2.85255e-06 5.37293e-07
-1.6064e-06 3.77582e-06 -3.51239e-07
-2.19105e-08 1.31674e-08 -9.96261e-09
-3.71912e-08 3.371e-08 1.54635e-08
1.2623e-06 8.63602e-07 -4.92498e-08
1.11977e-06 1.54991e-06 2.49766e-07
-5.11873e-08 1.02235e-07 -6.7333e-08
-4.45615e-08 1.14903e-07 -8.07767e-08
5.26924e-08 1.44516e-07 -5.39157e-08
6.89354e-08 1.53393e-07 -5.06174e-08
9.73673e-07 2.33532e-06 6.88639e-07
1.06758e-06 2.26627e-06 7.95386e-07
-3.99423e-08 9.77196e-08 1.43287e-09
-2.80139e-08 7.37809e-08 5.10359e-09
6.00627e-08 9.74785e-08 1.04445e-07
1.7682e-07 3.48252e-08 -6.63277e-08
-1.82141e-08 1.20854e-08 -1.74285e-08
-1.72136e-08 7.29286e-09 -1.59916e-08
-2.47764e-06 2.99864e-06 -2.33164e-07
-2.27401e-06 3.87383e-06 -1.70709e-07
1.4019e-08 8.7256e-08 7.29506e-08
-3.9437e-08 5.7387e-08 9.97401e-08
-1.08869e-08 1.24764e-08 1.30887e-09
1.10789e-05 5.89592e-06 2.54293e-06
-2.07976e-08 3.70372e-08 2.5065e-08
-3.09839e-07 4.74492e-06 -6.79727e-08
2.23044e-07 3.77931e-06 -1.76663e-07
-8.61463e-07 6.57836e-06 5.45494e-07
-3.20838e-06 5.20916e-06 1.03487e-07
-2.19526e-06 4.05543e-06 4.45758e-09
-1.29501e-06 2.1578e-06 -2.41707e-07
5.8563e-09 4.50177e-08 5.64009e-08
2.58754e-09 1.26498e-08 1.18017e-09
-3.33404e-09 4.39935e-09 -9.41207e-09
3.87984e-07 3.77829e-07 -2.31967e-07
9.57596e-07 1.62646e-06 -2.12173e-07
5.38187e-07 5.53987e-07 -3.42352e-07
1.30882e-09 2.88728e-08 3.04676e-08
-9.89785e-09 1.05899e-08 1.10078e-08
-2.99423e-09 1.0897e-08 2.51085e-09
2.04253e-08 1.56385e-08 4.02153e-08
2.75079e-08 6.44107e-09 4.35273e-08
1.42634e-08 3.62163e-09 2.66143e-08
1.69038e-08 1.81709e-08 3.84507e-08
4.0221e-08 3.45001e-08 8.51615e-08
2.4164e-07 2.93347e-07 -8.80458e-08
4.17413e-08 2.95215e-08 7.9751e-08
-5.30061e-07 4.74986e-06 -3.89233e-07
2.21285e-06 2.73571e-06 -2.46318e-07
2.06104e-06 3.18401e-06 -4.84013e-07
-2.53246e-08 2.02433e-07 1.86062e-07
-6.94476e-08 2.97363e-07 2.6474e-07
4.66069e-06 2.80032e-06 1.55336e-06
5.49263e-06 2.39358e-06 6.55105e-07
4.49762e-07 3.35156e-07 -4.12204e-07
1.27107e-06 5.6667e-07 -3.10754e-07
2.39302e-05 1.7642e-05 1.78838e-05
1.91962e-06 2.05742e-06 2.41408e-07
1.68407e-06 7.99463e-07 -1.72668e-09
2.31268e-05 1.96938e-05 2.19019e-05
-1.02241e-06 3.2664e-07 -6.55746e-08
-1.08245e-06 3.83334e-07 -1.2555e-07
4.15404e-09 1.3565e-08 3.78749e-08
1.73409e-10 1.8786e-08 4.13156e-08
1.00952e-06 5.38245e-07 9.57389e-08
1.00398e-06 6.54393e-07 -3.56931e-08
5.98953e-08 8.40465e-08 -1.95511e-08
4.3706e-05 2.00816e-05 -3.01124e-05
4.3832e-05 1.98553e-05 -3.29187e-05
3.44569e-08 8.66063e-08 1.60995e-08
4.40949e-08 -2.28031e-08 2.95478e-09
4.51362e-07 3.854e-07 2.33379e-07
2.26875e-07 1.43987e-07 1.03855e-07
6.59871e-07 3.58768e-07 -2.74341e-07
7.92755e-07 3.78202e-07 -3.01182e-08
-6.13861e-09 1.16243e-07 -1.08354e-08
1.232e-07 1.60567e-07 -6.06259e-08
4.06285e-07 2.33643e-06 -7.90375e-07
1.23919e-06 9.58698e-07 4.07414e-08
8.22098e-09 -2.06947e-09 -1.14321e-08
-1.19512e-09 -7.49395e-10 1.21216e-08
2.53081e-05 7.00632e-06 7.598e-06
2.65407e-05 8.67463e-06 1.1423e-05
-4.37644e-08 5.01587e-08 -1.03239e-07
-2.95443e-08 6.494e-08 -1.2662e-07
9.72008e-07 9.36982e-06 2.24722e-06
1.27052e-07 1.55504e-07 -2.20246e-07
1.24283e-07 1.80472e-07 -2.37387e-07
4.28764e-08 1.53064e-07 1.75708e-07
9.02516e-08 2.45195e-07 2.75231e-07
2.31755e-06 7.19457e-07 -3.87193e-07
-5.5402e-07 6.14052e-06 9.82324e-07
-2.2091e-06 3.65876e-06 5.98357e-07
7.42712e-07 1.21822e-07 -2.36692e-07
2.60303e-07 5.93686e-07 3.65468e-07
3.16972e-07 9.02357e-07 5.31177e-07
-6.3276e-08 8.25459e-08 -1.34288e-07
-6.19963e-08 6.00316e-08 -9.94637e-08
1.23647e-07 2.33748e-07 -1.69531e-07
2.71168e-08 1.47655e-07 -1.00524e-07
-3.3409e-05 1.61862e-05 -2.2543e-05
-3.3022e-05 1.58844e-05 -2.00908e-05
2.62068e-06 1.16629e-06 1.52785e-07
2.28815e-06 1.33388e-06 -2.41714e-08
-5.65761e-07 1.36516e-07 1.17413e-08
-1.35611e-06 1.84937e-08 4.4288e-07
-1.19546e-06 1.09531e-06 -1.68206e-07
9.61221e-07 1.02203e-06 8.42711e-08
2.69691e-07 2.76451e-07 3.52035e-08
4.47379e-05 2.97444e-05 4.38035e-05
-6.00891e-06 3.16985e-06 1.77205e-06
5.31595e-05 2.67717e-05 4.15821e-05
-2.36895e-09 7.67681e-09 -9.10686e-09
-1.5366e-09 6.00355e-09 -6.79469e-09
0.000114812 3.36088e-05 7.02051e-05
0.000102065 3.75623e-05 7.2556e-05
-8.00069e-10 -5.8506e-10 1.43804e-09
-1.34293e-09 5.97479e-10 2.77675e-09
3.85077e-07 5.52223e-07 -4.11483e-08
3.3627e-07 6.04773e-07 -1.1076e-07
3.79969e-05 2.8569e-05 -3.3848e-05
4.12977e-05 2.7652e-05 -3.50073e-05
1.9573e-07 7.70124e-08 -1.02107e-07
-4.15667e-09 -1.77868e-09 6.94651e-09
2.40004e-07 1.89917e-07 -1.94147e-07
1.21195e-08 1.27082e-07 -1.03608e-07
2.23084e-07 3.58006e-08 -8.16698e-08
1.30598e-09 1.34322e-07 3.63567e-08
5.40872e-07 2.88856e-07 1.1488e-07
5.83738e-07 3.14668e-07 4.20322e-08
9.91869e-08 1.40202e-07 1.32422e-07
8.99988e-08 3.89063e-09 -5.38558e-08
2.31325e-06 3.77497e-06 -2.86007e-07
2.81473e-05 4.34433e-06 -2.06448e-06
-3.50697e-08 2.77847e-07 7.9002e-08
-6.81492e-08 3.76403e-07 1.03922e-07
2.46574e-05 4.09723e-06 -4.51665e-06
2.65531e-05 4.48056e-06 -4.71452e-06
4.72112e-08 9.28071e-08 -2.78499e-08
6.59483e-08 1.85271e-07 -3.76311e-08
3.08302e-05 3.62051e-05 6.67711e-05
-4.28178e-06 3.10853e-05 5.15492e-05
0.000198306 8.86977e-06 2.68224e-05
0.000180185 1.04081e-05 2.63902e-05
-3.79511e-06 2.77601e-05 4.47102e-05
2.96235e-07 2.20447e-07 3.07185e-09
8.45629e-07 4.59799e-07 -1.42691e-07
1.03702e-07 1.78205e-07 -5.01852e-08
7.62873e-07 5.81071e-07 1.32443e-07
6.92143e-08 2.03876e-07 -6.04865e-08
8.18712e-08 1.717e-07 3.67662e-09
4.18231e-07 -1.72236e-07 3.90658e-07
4.29154e-07 3.16861e-07 -2.70105e-07
3.95007e-07 4.00631e-07 -3.37226e-07
5.40152e-05 1.7206e-05 2.89421e-05
5.80639e-05 1.61149e-05 2.79318e-05
6.90514e-07 -3.23983e-08 4.68759e-07
5.13392e-07 2.90234e-07 1.75613e-08
-7.46539e-08 3.54792e-08 3.34717e-09
-1.04294e-07 5.67642e-08 1.98698e-08
3.5811e-05 4.39096e-05 6.55614e-05
1.26305e-05 3.97887e-05 5.56944e-05
7.48748e-07 4.22675e-07 2.74018e-07
9.1632e-07 3.50781e-07 2.86716e-07
2.03832e-07 1.59535e-07 8.82501e-08
3.20641e-07 3.73504e-07 1.67089e-07
1.00605e-07 9.74143e-08 -1.30125e-07
1.13883e-07 7.57532e-08 -1.10903e-07
1.37703e-09 1.0176e-08 1.41767e-09
9.7059e-10 9.99529e-09 1.8263e-09
8.6898e-08 6.22922e-08 -9.46894e-08
3.52885e-09 2.49436e-09 -8.52454e-09
-1.16671e-09 4.5942e-09 -5.17652e-09
2.95042e-05 1.35343e-05 -1.44922e-05
7.72198e-07 6.12217e-07 2.43947e-07
8.00373e-07 5.77981e-07 1.08927e-07
2.54784e-05 9.62108e-06 -1.06294e-05
2.86641e-05 1.34166e-05 -1.62798e-05
4.04958e-09 1.35653e-08 -2.92862e-08
4.22059e-10 7.26138e-09 -1.49353e-08
7.1028e-08 2.69211e-07 2.05329e-07
2.06687e-07 2.49836e-07 2.09614e-07
1.55031e-06 1.07922e-06 8.18083e-07
1.92874e-06 9.71864e-07 5.31589e-07
1.82041e-09 6.87735e-09 6.2266e-09
5.21543e-10 7.35395e-09 7.35603e-09
3.23463e-07 2.3031e-07 -4.83509e-08
4.98796e-10 2.87599e-09 6.00798e-09
-2.81617e-08 1.97762e-08 -9.90429e-09
-2.13731e-08 9.82573e-09 3.4222e-08
3.05318e-07 2.33592e-07 5.55567e-09
3.94102e-07 3.06865e-07 1.79037e-08
1.27907e-08 -1.80158e-09 2.77573e-08
-2.01083e-09 1.15536e-08 4.19427e-08
2.0762e-09 -5.5355e-09 -1.56515e-08
-1.9072e-06 1.97923e-07 6.59205e-07
5.14218e-08 -2.0137e-08 -1.41362e-09
-1.97757e-06 2.50918e-07 4.51306e-07
5.62043e-07 1.46265e-06 2.47021e-07
4.88147e-07 9.87034e-07 1.60598e-07
1.14774e-07 3.19347e-07 1.6794e-07
1.5149e-06 5.18073e-07 -1.93869e-07
4.7414e-07 2.1116e-07 1.42203e-07
4.85884e-07 2.94778e-07 1.40903e-07
1.58768e-07 3.4583e-07 1.62919e-07
-3.94148e-08 1.97388e-07 1.89003e-07
-1.869e-08 2.08971e-07 1.83685e-07
4.21221e-08 1.11786e-08 -4.6865e-08
6.90548e-08 6.35581e-08 -5.1974e-08
2.2072e-07 1.21235e-07 -1.2551e-07
5.67774e-07 8.61728e-06 1.50441e-06
7.48956e-09 9.76179e-09 3.71575e-08
2.40306e-09 8.45346e-09 2.57078e-08
1.05525e-06 7.39891e-07 -1.67966e-07
8.08736e-07 1.04097e-06 -2.2143e-08
1.71837e-06 1.07932e-06 -5.58358e-07
1.26545e-06 8.5535e-07 -4.28378e-07
1.04621e-06 1.00506e-06 3.68477e-07
3.5091e-07 2.96298e-07 -2.45385e-09
3.24358e-07 2.63258e-07 7.52782e-08
2.76928e-07 2.18563e-07 -2.04568e-07
-1.17083e-08 1.93313e-08 8.3934e-09
-8.02754e-09 2.41814e-08 -1.09193e-09
-8.37924e-09 2.36744e-08 -3.22817e-09
7.29232e-08 2.83784e-08 -7.58227e-08
1.38097e-08 5.4676e-08 -8.32951e-08
7.34217e-08 1.1147e-07 -1.7814e-07
-1.08211e-08 6.48635e-08 -7.13696e-08
1.29058e-07 2.00349e-07 1.49318e-08
3.36726e-06 5.77656e-06 -3.63536e-07
2.62699e-08 2.03535e-08 6.65458e-08
1.92115e-08 1.98192e-08 6.81198e-08
1.15822e-06 2.4771e-07 1.85252e-07
3.26518e-06 1.08091e-06 -3.82942e-08
1.39176e-07 2.45357e-07 -9.91379e-08
1.86911e-07 1.44217e-07 -9.46052e-08
1.31883e-07 5.83892e-07 4.76682e-08
-3.81651e-08 9.9946e-07 8.72995e-08
2.16389e-08 7.31101e-08 8.06766e-08
1.61707e-08 7.42832e-08 7.35344e-08
2.13032e-08 2.28029e-08 -4.16957e-08
1.88126e-08 3.6864e-09 -1.64679e-08
1.61847e-08 3.29016e-09 2.32183e-08
1.8305e-08 1.22004e-08 3.93204e-08
1.51985e-08 1.71608e-08 -3.40622e-08
6.9666e-06 3.84495e-06 1.34399e-06
2.5211e-05 1.81653e-05 -1.46287e-05
-4.48258e-09 2.26234e-07 2.82786e-07
-1.19203e-07 1.8325e-07 2.20888e-07
7.9963e-07 1.59487e-06 -2.70315e-07
6.89651e-07 1.90846e-06 -2.30003e-07
0.000147034 1.08368e-05 2.72212e-05
0.000133488 1.24984e-05 3.21542e-05
2.33205e-05 1.58281e-05 -1.27143e-05
7.01334e-06 5.01549e-06 2.40483e-06
-8.65498e-07 7.01558e-07 -1.75901e-07
-8.98404e-07 6.09495e-07 -1.66082e-07
4.61805e-06 3.81099e-06 1.62577e-06
2.21681e-05 1.60377e-05 1.53877e-05
2.01301e-05 1.30139e-05 1.21573e-05
1.36849e-09 -6.27304e-09 2.16363e-08
-2.0988e-08 1.5304e-08 -1.28595e-08
-1.39264e-07 6.70845e-08 6.37398e-08
1.8925e-05 1.30144e-05 1.11371e-05
-1.95943e-07 5.85362e-08 -4.75235e-08
-1.54052e-07 7.32683e-08 2.26372e-08
-4.51228e-07 2.79992e-07 -2.05182e-07
-2.77935e-07 1.59642e-07 -1.23525e-07
-1.91859e-07 7.38288e-08 -9.18938e-09
1.23656e-06 5.28314e-06 -2.16695e-07
9.47476e-09 5.28532e-09 -5.78654e-09
9.87796e-09 7.13989e-09 -1.0525e-08
-1.34087e-08 3.23452e-08 -1.63707e-09
7.87957e-09 2.26047e-08 1.7408e-08
-5.01502e-09 1.35808e-08 9.28127e-09
-1.45796e-08 2.73973e-08 1.08441e-08
-1.80272e-08 2.38098e-08 5.95914e-09
-3.17097e-08 5.51068e-08 -5.36469e-09
4.40528e-08 2.80331e-09 -4.91153e-08
2.68612e-07 3.15147e-07 4.12026e-08
2.72253e-07 1.54326e-07 -1.04318e-07
2.00269e-07 1.89019e-07 1.84149e-08
-2.27185e-08 9.58961e-08 -1.31307e-08
9.66514e-07 4.48741e-07 1.13718e-08
-4.0724e-06 3.79612e-06 2.41839e-06
-2.90066e-06 3.87588e-06 2.36889e-06
-1.01067e-06 4.46369e-08 3.93196e-07
-8.77965e-07 -5.72692e-08 5.83112e-07
1.49432e-06 7.05539e-07 -3.05379e-08
1.36647e-06 2.59437e-07 4.61636e-07
-1.50677e-08 1.00492e-08 5.9139e-08
-5.01987e-07 -2.01845e-08 -4.7068e-07
-8.68534e-07 6.16836e-08 -4.29945e-07
-4.58778e-09 8.60443e-10 5.48314e-09
-1.17725e-08 6.6489e-09 1.3086e-08
-1.1074e-08 -6.0611e-10 -1.43308e-09
1.65069e-07 4.92959e-07 1.27252e-07
1.31846e-07 4.79849e-07 1.00549e-07
-2.7002e-08 2.23264e-08 2.15269e-08
3.41798e-07 2.3929e-07 -2.66331e-07
-4.66506e-08 2.74915e-07 1.27509e-07
-1.44078e-06 2.09048e-06 3.52131e-07
-1.37563e-06 1.97691e-06 2.82555e-07
-1.47165e-07 2.52062e-07 1.28187e-07
-7.8513e-08 1.03323e-06 -7.2368e-08
-1.68382e-08 1.09703e-06 -1.06042e-07
3.18982e-07 5.84803e-07 -3.60195e-08
-2.59841e-08 2.69868e-08 3.37371e-08
1.59993e-06 2.52374e-06 -8.70875e-07
1.79154e-06 1.84977e-06 -3.86673e-07
-7.38201e-08 2.04837e-06 -9.49118e-07
-3.29745e-08 3.80494e-09 -8.92203e-09
3.3644e-05 2.16582e-05 3.06423e-05
2.6922e-05 2.10946e-05 2.77487e-05
8.23164e-09 -4.09982e-10 -1.15081e-08
4.53607e-09 7.80974e-08 3.51005e-08
3.96281e-05 2.25856e-05 -2.88838e-05
1.67049e-08 1.34684e-07 6.57831e-08
2.54417e-08 2.81918e-08 5.70712e-08
4.19873e-08 2.39535e-08 5.71984e-08
3.63557e-07 3.67355e-07 -2.99826e-07
2.75307e-08 2.42625e-08 4.49215e-08
2.86836e-06 5.75219e-06 -1.02149e-06
3.62664e-06 4.26421e-06 -6.09659e-07
1.4059e-08 6.73074e-08 8.76863e-08
-1.24615e-08 7.25742e-08 2.09579e-08
-2.63311e-08 1.39902e-08 2.94148e-08
-1.37916e-08 3.35718e-10 8.18366e-09
7.0144e-06 1.48581e-06 -3.94562e-07
8.8408e-06 2.18542e-06 -3.40507e-06
-2.46058e-06 2.08343e-06 1.2872e-07
-1.69689e-07 3.82061e-07 4.41577e-08
2.30767e-06 9.20311e-07 -1.96634e-07
-5.97184e-08 7.90733e-08 7.82485e-09
-2.46317e-08 9.28053e-08 -5.1841e-09
-1.77868e-06 1.24765e-07 6.4679e-07
-2.0116e-06 4.63144e-07 -3.24456e-07
-9.17697e-07 2.18143e-07 -9.43367e-08
-1.0776e-06 1.2813e-07 -3.67202e-07
-7.3264e-08 9.78328e-08 -6.26489e-08
-4.40502e-07 3.71007e-07 2.49612e-09
4.8578e-07 1.63258e-07 -2.53269e-07
4.85672e-07 1.81381e-07 -2.03848e-07
-4.62224e-07 3.83353e-07 8.09238e-09
6.81842e-07 4.84195e-06 7.40819e-08
1.708e-06 4.1704e-06 1.43579e-08
1.15232e-06 3.76706e-06 1.7253e-07
1.36862e-08 1.55824e-08 5.62098e-08
7.21171e-06 1.54947e-06 2.25024e-07
8.00614e-06 1.7105e-06 -1.0729e-06
-1.43914e-06 6.47385e-06 -1.13223e-06
1.31522e-08 -2.17522e-09 1.55941e-08
1.92918e-06 4.27828e-06 5.8982e-08
3.74519e-06 7.50177e-06 3.91384e-06
4.6159e-06 5.77369e-06 2.52856e-06
8.38094e-06 7.29094e-06 3.44509e-06
1.12706e-07 4.16058e-07 7.14723e-08
8.18742e-08 5.34398e-07 5.25515e-08
-3.26786e-07 1.5176e-06 1.7471e-07
-8.75269e-08 8.54784e-07 1.03572e-07
6.66085e-07 2.90725e-07 1.44556e-07
3.5778e-07 5.25601e-07 1.08098e-07
1.8807e-06 6.36684e-07 -2.68897e-08
2.44997e-06 1.009e-06 3.44003e-07
-3.84077e-08 1.00402e-09 2.98194e-08
-3.28198e-08 -2.54731e-09 1.54049e-08
7.50603e-08 1.81366e-08 -8.02744e-08
5.9253e-08 8.08659e-09 -4.87242e-08
-2.22421e-08 7.35845e-08 1.10815e-07
1.56412e-08 6.02192e-08 1.17965e-07
-1.55346e-08 6.2176e-08 1.03559e-07
2.64097e-07 1.00735e-07 2.01672e-07
3.93349e-07 2.39001e-07 -6.00075e-08
5.53059e-07 2.60276e-07 1.39687e-07
2.32143e-08 7.43323e-08 -8.10838e-08
1.25343e-08 7.58361e-08 -7.73914e-08
-3.75095e-08 5.69311e-07 -3.30115e-07
3.54117e-08 3.33201e-07 -1.984e-07
-5.95396e-07 3.19006e-06 -5.69897e-07
-1.17171e-06 2.40182e-06 -4.37392e-07
-1.43601e-08 6.25816e-08 -5.53784e-08
2.03483e-07 -2.09374e-09 -4.07206e-08
-2.12423e-08 5.13597e-09 1.2157e-08
1.32771e-08 3.2826e-08 -5.07873e-08
-1.4128e-06 3.91954e-06 -1.70341e-07
-7.78222e-08 3.68441e-07 -2.73591e-07
-1.39649e-07 3.19848e-07 -2.25545e-07
1.93901e-05 2.66321e-05 2.63094e-05
1.62553e-06 8.34082e-07 1.19739e-06
7.70857e-05 6.70687e-06 6.8404e-06
8.6219e-05 6.95169e-06 -3.77964e-06
7.12076e-05 7.09844e-06 -1.16287e-05
8.3521e-05 6.74474e-06 -8.88496e-07
1.82835e-06 8.18469e-07 1.1101e-06
1.86396e-05 2.24527e-05 2.14417e-05
1.72628e-05 2.24678e-05 1.97776e-05
4.52766e-08 2.88018e-08 -8.05369e-08
-2.53756e-08 5.6694e-09 -2.79751e-08
-1.2435e-08 4.68464e-09 -5.12358e-08
5.08647e-08 1.79878e-08 -6.66807e-08
2.29056e-08 8.22774e-09 -3.25092e-08
1.36984e-07 2.41063e-07 8.5525e-08
1.01794e-07 3.55926e-07 2.12461e-07
-6.27178e-07 8.16935e-08 2.32918e-07
-1.92733e-05 8.08946e-06 -7.9497e-06
-2.05614e-05 7.89422e-06 -8.15478e-06
-8.43399e-07 7.91581e-07 -2.19604e-07
2.09653e-07 2.01452e-07 -1.63501e-07
3.61213e-07 3.81003e-07 1.09202e-07
1.86038e-07 5.09121e-07 -2.70015e-07
1.75156e-07 2.14202e-07 -1.4384e-07
1.2727e-07 4.60284e-09 7.57975e-08
1.04299e-07 5.51854e-08 1.33264e-07
6.57522e-08 3.314e-08 8.60844e-08
1.13104e-06 1.53145e-06 -1.03429e-07
1.25524e-06 1.72504e-06 -1.06308e-07
-3.63201e-05 1.67372e-05 -2.57116e-05
-9.82301e-08 2.07064e-07 4.27782e-09
3.47718e-08 6.75229e-09 2.27793e-08
-2.94646e-08 6.96979e-08 1.26599e-07
6.00663e-07 1.8364e-06 -1.94435e-07
6.30764e-07 1.33678e-06 -1.63727e-07
-5.56659e-08 9.29181e-08 -1.98359e-09
1.15685e-07 1.84389e-07 4.55034e-09
-1.0999e-07 1.65478e-07 -1.23398e-08
-1.71366e-05 1.25762e-06 -5.56434e-07
2.62836e-09 1.09515e-07 -5.29362e-08
-3.95893e-09 9.3356e-08 -4.64276e-08
-1.08199e-05 4.80771e-08 -1.7251e-06
7.78874e-07 7.12635e-07 -2.447e-07
-1.44058e-05 2.84062e-06 2.09057e-06
-1.11513e-08 1.01674e-07 2.31076e-09
1.57562e-06 5.91691e-07 1.156e-07
1.75292e-06 4.6578e-07 4.47888e-07
2.40021e-09 6.6748e-08 -3.43987e-08
-9.08784e-09 7.91672e-08 2.41257e-08
1.12797e-07 2.01338e-07 -1.19933e-07
1.79179e-08 -1.07091e-08 -1.73498e-08
1.76797e-08 2.14051e-10 -3.63337e-08
4.4059e-07 4.54826e-07 -1.18915e-07
5.4627e-07 3.83043e-07 6.80185e-08
2.57252e-06 2.00681e-06 7.87026e-07
3.01164e-05 2.35667e-05 3.01889e-05
2.33661e-05 2.33769e-05 2.79712e-05
1.76659e-08 7.99363e-10 3.07502e-09
-1.57015e-08 1.93974e-10 -1.54914e-08
2.37194e-05 2.30857e-05 2.57731e-05
3.55103e-07 9.51872e-08 1.52736e-07
1.82088e-07 1.41536e-07 1.56914e-08
-2.15337e-08 5.55009e-08 -1.31564e-09
-1.06293e-07 2.06451e-07 1.85457e-07
-9.45337e-08 2.26766e-07 1.86288e-07
-4.18581e-07 3.44832e-06 2.94083e-07
-1.01516e-07 4.27837e-08 4.03056e-08
-2.47709e-08 1.23553e-07 9.74119e-08
-2.06141e-05 2.95956e-05 -4.97053e-05
-1.65902e-05 2.86926e-05 -4.39113e-05
-5.71469e-07 3.4369e-06 3.07056e-07
1.0665e-06 1.17971e-06 -2.26385e-07
-1.87029e-07 2.94708e-06 3.91756e-07
-2.63459e-09 -3.79993e-09 -2.24384e-08
3.74143e-07 7.79677e-07 -1.86553e-07
7.24631e-06 3.2835e-05 -3.22582e-05
4.24922e-07 5.78614e-07 -7.50152e-08
8.92593e-07 5.98134e-07 6.00111e-07
5.87541e-08 1.03627e-07 -5.20499e-08
-3.25096e-08 4.70189e-08 3.03403e-08
9.0019e-09 2.16931e-09 -3.49038e-09
-4.24534e-09 3.26208e-09 -2.10374e-08
-2.0346e-05 1.90059e-05 -1.8684e-05
-3.00801e-08 6.21524e-08 9.72603e-08
1.23608e-06 4.71791e-07 -1.48627e-07
-5.54367e-09 -2.71604e-09 2.11028e-09
6.95595e-08 1.33776e-07 1.46543e-07
2.25825e-08 8.01136e-10 2.28963e-08
1.33563e-05 2.32521e-05 -1.72364e-05
2.56459e-07 8.92841e-08 -1.03841e-07
1.33896e-05 2.37553e-05 -1.96408e-05
0.000293672 8.0532e-07 -3.73719e-05
0.00027116 3.75856e-06 -4.41695e-05
1.61323e-08 9.92851e-08 9.53251e-08
0.000168945 2.71708e-05 -7.84607e-05
1.41668e-08 1.11909e-07 9.15984e-08
-5.13964e-08 6.5893e-08 1.21466e-08
-5.96318e-08 4.80323e-08 -5.92628e-09
4.38192e-08 1.54099e-07 1.30233e-07
1.00853e-06 1.04291e-06 -3.30634e-07
1.45685e-08 1.83719e-10 -9.3113e-09
3.40454e-07 2.62297e-07 -8.56611e-08
3.37698e-05 3.2133e-05 -3.50908e-05
3.42274e-07 1.85523e-07 7.50595e-08
3.46482e-07 1.49653e-07 1.35188e-07
3.52151e-07 1.77256e-07 1.14705e-07
3.16679e-05 2.37824e-05 3.32836e-05
-8.84823e-08 4.76079e-08 -1.68848e-08
-7.75833e-08 4.0826e-08 -4.49235e-08
-1.71083e-07 1.00232e-07 -8.27108e-09
-3.00983e-07 2.51856e-07 -6.5339e-08
3.55372e-05 2.73855e-05 3.78412e-05
7.26977e-06 3.81743e-06 -1.151e-06
3.15153e-06 4.35633e-06 -2.02187e-06
3.48586e-06 4.40753e-06 -1.89187e-06
0.000190945 6.9049e-06 -2.41795e-05
0.000178753 7.74939e-06 -2.20983e-05
4.25342e-06 3.81381e-06 -1.53271e-06