# vtk DataFile Version 2.0
S, Created by Mohamad Ibrahim Cheikh
ASCII
DATASET UNSTRUCTURED_GRID
POINTS 10490 double
-223.577 20.3395 -34.7912
-223.728 23.2865 -32.7657
-130.489 -29.2971 69.2893
-194.383 -37.8828 -41.0232
-207.467 29.5115 40.0417
-235.874 27.4011 13.4741
-191.273 -39.7115 -41.0833
14.376 -3.0969 87.8015
-191.054 39.2332 -41.6632
-193.393 36.9422 -42.4293
-251.146 3.21359 -3.38149
-251.007 5.46338 -0.715246
-204.325 29.305 -42.1178
18.5673 -1.45504 87.7478
-201.227 30.3656 -43.1792
-151.275 68.7509 -14.6835
-148.467 69.9628 -12.2695
241.381 21.7609 -11.7084
240.378 24.3449 -8.78205
39.1243 73.0079 -47.1851
42.9725 72.283 -47.8861
45.3784 -3.17207 -86.4976
49.244 -1.49088 -86.2838
-145.562 -45.4911 -55.5019
-142.057 -46.9152 -55.4282
-191.797 -27.3617 49.916
-189.472 -30.0403 49.4608
-64.3405 -67.8327 51.341
-66.4839 -66.0137 53.3389
-121.224 -41.6761 -64.8687
-205.482 44.6111 24.1758
-208.427 41.8756 25.92
-64.8736 -22.5432 81.9789
-61.2468 -23.9038 81.935
44.2815 4.23348 86.5217
-201.398 -44.917 27.5778
-50.7735 82.8797 -23.6503
-47.5139 82.5906 -25.4243
-109.54 -78.4117 -11.2494
-105.514 -79.2425 -10.0787
-195.486 42.6455 35.3087
-200.946 -43.0026 30.84
-54.4227 -15.2801 84.5453
3.49278 8.33428 87.5959
226.254 36.0727 -13.2455
223.493 37.2795 -15.4579
-146.975 22.4367 -67.7931
-143.816 23.711 -68.1877
-167.022 -43.0218 -49.777
-163.504 -43.4764 -50.8016
-215.266 -7.15577 -44.9384
-215.165 -3.15976 -45.4528
-105.618 -17.5789 77.9054
-104.08 -21.1166 77.2776
-247.96 -12.5211 7.72453
-247.223 -12.2231 10.5723
-226.223 -18.8446 33.5154
-129.022 -40.8332 -63.55
238.447 4.07579 -27.6838
236.191 2.11818 -30.1596
30.64 -3.68288 -87.2668
26.6715 -1.93425 -87.4824
-224.96 -22.5384 32.2516
-47.6613 -75.8709 41.346
-235.553 -26.7704 15.3058
-110.028 51.3063 -60.2454
-237.92 -25.2885 13.1993
-16.8488 -1.3876 -87.7913
-20.0167 -3.94792 -87.632
25.2919 7.64458 -87.2195
27.3107 3.80107 -87.397
25.4132 1.7846 -87.5314
45.9499 -6.28736 -86.29
-242.159 -16.9741 16.6269
249.587 -5.36876 -9.40941
249.11 -2.30243 -11.8809
-169.135 48.1735 43.8292
30.474 -13.4541 -86.3093
-165.506 47.9473 45.7318
-244.371 -14.4425 14.9735
243.986 6.92818 20.1945
244.544 3.5646 20.2422
-218.53 -34.2525 26.9088
-142.145 -69.4108 21.2699
-139.629 -70.7397 18.7868
-221.095 -32.056 27.0487
-157.97 -59.7993 33.3595
-205.034 32.4681 39.281
-154.318 -61.3631 32.6035
21.3207 7.45536 87.3657
-119.03 18.5672 75.2639
-116.363 20.6611 75.2287
25.5775 -59.0289 64.649
29.1115 -57.6561 65.6964
-134.455 55.1049 -49.9412
-136.724 52.6059 -51.8458
-177.084 57.9247 23.4405
-176.671 59.4027 19.8475
-69.4085 65.6407 -53.3431
-62.7145 16.9654 -83.5143
-66.3351 16.9296 -83.1784
-65.8927 67.2294 -51.8905
124.442 57.7526 50.1267
121.008 58.3596 50.452
-132.441 -69.8468 26.7941
-132.815 -68.0007 30.988
-188.846 35.1298 46.3001
-185.099 37.3028 46.4525
-232.725 13.1756 -30.6504
-58.9401 75.6584 39.9311
-60.249 77.1675 36.671
-231.927 16.7999 -29.6014
-175.27 -46.9577 -42.1659
-178.781 -11.2231 60.8673
-181.794 -8.37303 60.2301
-195.808 53.7599 12.6413
-198.359 52.0735 14.6688
-195.137 -6.40173 -55.1459
-196.108 -2.36118 -55.0451
-155.749 25.0959 64.3764
-159.44 22.5031 64.2286
-196.21 -54.5516 -7.39885
-193.182 -56.048 -5.79634
-90.6363 75.372 -32.5162
-86.6277 75.7878 -32.8855
-39.2322 -78.9665 -36.3296
-42.733 -77.6533 -38.6055
-35.6832 20.7536 -84.6014
-119.247 -59.0748 -50.132
-116.052 -58.3867 -51.8274
-103.565 -58.9088 54.4114
-107.459 -57.2159 55.2865
-176.032 46.9212 -41.8163
26.896 14.117 -86.349
23.747 15.8501 -86.1611
-175.59 44.5894 -44.5087
-89.4404 -39.5804 72.0971
-93.3089 -38.4371 72.1155
-1.70831 -75.0111 -46.0107
2.63075 -75.2477 -45.6172
-158.02 -33.1923 -59.8762
-154.736 -36.6295 -58.9144
24.9202 73.2279 48.0171
27.4721 71.2407 50.7579
-166.532 38.8338 53.2971
-168.949 36.4633 54.035
126.634 60.2664 46.3533
124.972 62.2382 44.2524
55.9009 20.274 83.369
-158.133 12.6647 67.2467
-155.541 9.86183 68.4455
-43.1172 74.1645 -44.9
70.8364 53.1321 -65.6251
-40.3205 75.7974 -42.423
222.064 -27.8281 -30.5326
225.276 -26.0123 -29.2253
-15.4145 80.4259 -35.307
-18.3776 79.2333 -37.7456
247.477 -7.06408 13.9945
245.671 -9.07238 16.5073
-182.885 19.865 57.0477
-181.345 22.7091 56.5866
-54.821 69.2257 50.8317
-52.5339 71.0888 48.5025
-221.669 26.3886 -32.1208
245.288 -12.7014 14.713
-123.332 -44.6564 -62.3501
-128.466 -46.8981 -59.3636
-126.779 -44.2462 -61.7938
-219.064 -11.0509 41.7921
-206.359 49.8845 -6.47911
-208.043 48.5225 -9.51688
-173.561 -35.1366 53.117
-196.132 -34.8661 -42.6468
-56.7987 10.7094 85.0549
-98.8988 80.767 4.81607
-149.825 -21.463 67.3429
-153.217 -21.707 66.3228
-105.106 79.9159 2.21968
-102.718 80.1497 5.31513
-208.259 -1.82365 -49.3017
-211.701 -0.422954 -47.5062
6.92678 77.2029 -42.1643
8.15732 75.387 -45.3062
-12.7585 86.2716 -16.7715
-16.8545 85.6106 -19.4946
11.9133 74.7612 -46.2318
-209.313 34.9119 -34.0773
-209.412 37.4907 -31.136
-243.667 12.2938 -17.9919
-205.981 40.1024 -30.6806
-237.95 16.7333 23.0638
-240.122 13.5387 22.3945
-198.663 34.6914 41.3347
-44.083 -51.8543 -69.4061
-47.9288 -52.171 -68.8545
-63.5057 78.7925 -32.2798
-60.3107 79.7585 -30.6146
-198.892 37.6902 38.4754
-195.37 39.99 38.3626
193.192 51.8485 -22.0509
191.206 51.6134 -24.5772
-16.9972 73.5146 -48.0024
-16.0196 71.7083 -50.7001
-160.701 -8.66961 67.1349
-158.244 -5.1378 68.2042
-159.176 -12.1819 67.0342
-155.581 -13.9427 67.7209
-181.215 -39.3664 -46.624
-187.066 -34.8929 -47.3518
234.201 -8.19796 31.0077
231.367 -8.83944 33.3482
-185.722 -37.8043 -45.737
-220.423 -36.3319 -21.8075
-223.2 -33.1947 -23.2995
-73.6576 69.88 46.8673
-199.236 43.3818 -31.6569
-202.399 40.5265 -32.9574
-78.4862 72.1476 42.2438
-74.5808 72.0487 43.2664
-199.862 -47.1003 -25.2008
-196.405 -49.1626 -24.5823
-156.237 -38.5588 57.1726
-155.212 -34.6006 59.978
-162.883 56.2786 -36.4493
-159.728 58.1053 -35.273
245.94 -16.0777 8.95244
246.756 -13.0532 10.9097
-202.185 25.1278 -45.9105
246.469 -16.6405 5.45945
-222.675 -40.7292 -3.81043
-219.564 -42.6763 -4.53558
-225.907 36.4581 -12.9114
-224.08 36.2185 -16.8752
-228.9 -34.8682 10.6504
-231.376 -33.5771 7.89213
-225.472 -37.7617 9.69441
119.539 74.8295 19.8766
-172.163 -51.1026 -38.7774
115.343 75.6455 19.8231
47.9238 12.1904 -85.5232
51.5098 10.7864 -85.4565
-180.219 -22.1699 57.2371
-179.919 52.3309 -32.2847
-165.444 0.851187 66.2733
-168.567 2.83006 65.2469
-181.017 -17.4116 58.5587
36.4516 -59.7514 63.3332
37.7862 -57.2044 65.5504
-159.984 -59.9391 -31.9016
-182.766 -21.7969 -56.3853
-184.308 -18.0283 -57.097
-11.9247 15.2191 -86.5735
-188.59 -54.9976 19.1021
-192.466 -53.121 19.6706
-145.919 9.34868 -71.0617
-143.724 12.1576 -71.1843
-174.337 52.4406 35.678
-173.408 50.7337 38.5822
-187.16 39.7353 -43.3186
-231.492 33.5014 -7.79803
-229.086 35.975 -4.95815
-234.899 30.8752 -5.94468
241.404 7.72125 23.4446
239.892 10.8372 24.1019
240.609 13.4023 21.8297
-138.878 -61.8296 -39.4942
-138.123 -60.1617 -42.2949
-141.494 -58.2484 -43.5889
-200.351 -41.1633 -33.6922
-218.714 20.1192 -38.5056
-52.6253 9.14657 85.5645
-56.6792 -81.1827 27.5693
-60.1938 -81.4604 25.7798
-152.588 56.1738 41.6887
-153.323 58.0755 38.6413
-189.411 -9.8936 -57.0417
-186.062 -8.87709 -58.5385
64.9151 -8.69894 84.5719
67.8936 -7.05705 84.4384
-196.835 -37.2182 40.1918
-200.414 -34.6086 40.3573
-180.668 -48.2451 -37.6853
-174.531 -52.0915 -36.0707
-215.618 -38.5089 23.8564
-218.655 -36.4147 23.7611
-178.254 -50.9814 -35.4222
-121.43 48.0128 -60.2786
-70.8227 59.9525 59.4609
26.871 -68.2968 54.6914
24.8064 -66.5846 56.8784
-87.1798 -8.56175 -82.0986
-84.0015 -6.24965 -82.7106
-28.9206 86.1146 -15.0288
-32.8755 85.6729 -16.4873
-74.6645 60.4158 58.4072
-117.495 49.0731 -60.3794
67.0763 -10.9549 -84.102
63.3266 -11.563 -84.3761
-122.238 44.8057 -62.5065
-75.7063 64.4326 -53.7656
-79.2686 64.5466 -52.9948
-210.937 -46.4387 -11.8316
-207.911 -47.2771 -14.7163
-70.3861 -66.9043 51.5875
-82.046 62.0476 -55.4071
181.001 57.5738 -20.4516
187.79 54.744 -20.7264
-57.9951 -57.7636 -63.2106
-60.2536 -59.9464 -60.8765
185.026 56.5073 -18.9619
-52.1963 5.02587 85.9371
170.803 -60.9399 -21.4147
166.658 -61.8362 -22.7993
-242.161 -11.2301 20.9366
-241.443 -7.71401 23.3974
231.622 25.8612 -22.5152
229.371 25.1808 -25.8601
225.984 27.688 -26.9256
-235.385 -18.9684 -24.5117
-234.849 -16.6286 -26.7388
-226.062 27.169 -27.3708
-222.946 28.4645 -29.1273
-220.764 31.3798 -28.1503
-250.634 -7.29313 -0.178713
-176.03 45.3154 43.5525
58.5971 51.3269 -68.4775
59.7003 48.4997 -70.3947
128.089 68.3816 32.5466
131.584 68.3036 30.9649
-176.906 47.6289 40.5455
-181.011 46.7592 39.3213
18.7047 -86.4178 15.2687
142.025 69.364 -21.5197
141.08 68.3974 -25.0797
23.2384 -86.1703 15.8922
181.098 -44.0244 42.3152
25.6366 -86.6619 12.3796
-189.023 21.653 -53.8587
-189.444 17.9067 -55.0404
-212.327 -45.0141 14.0798
-120.843 -46.9991 -61.2147
-24.3216 -37.2685 79.2631
52.2902 18.5721 -84.0495
55.8054 16.7834 -84.1489
-25.2934 -41.1179 77.2981
-119.139 -6.51617 -77.2253
-115.758 -7.731 -77.7411
-200.044 16.4838 50.7241
-215.148 -43.2638 14.3207
-153.4 33.0911 61.384
-156.821 31.3941 61.2169
-157.698 28.2481 62.4608
-79.9682 -83.4308 0.602774
-62.5159 73.3623 -43.3991
-61.9544 71.3022 -46.7981
-79.8044 -83.3553 -4.02129
-209.642 -18.6802 44.8807
-59.1617 71.9395 46.2622
-205.671 -19.6719 46.6707
-191.283 -46.388 33.3546
-190.153 -45.0073 35.9373
-195.125 47.3312 29.0234
-192.216 -42.6377 37.4512
-97.635 19.9269 78.6119
-94.0256 21.0688 78.8525
-195.846 -41.8712 35.9849
-247.68 -8.81075 12.4836
188.064 -42.0215 40.5962
184.93 -44.2656 39.9696
-127.046 75.5347 7.89981
-123.379 76.0796 9.6021
48.8224 1.72945 86.3086
130.443 15.6001 -73.6032
-179.663 46.5416 -40.3235
198.594 13.1818 52.3606
200.49 9.43547 52.2852
113.317 74.8996 23.7056
109.57 75.3587 24.3969
149.544 63.7474 -30.6971
145.712 65.3569 -29.5474
-166.876 -45.6681 -47.4239
129.836 19.3636 -72.8368
-209.794 43.7105 -21.0901
-206.934 46.134 -19.3128
126.46 20.2161 -73.3306
-61.8787 -0.233326 85.2946
-59.1484 2.67575 85.4898
[...]
POINT_DATA 10490
VECTORS F double
1.33468e-08 3.05903e-08 7.38148e-09
1.24491e-07 8.82094e-08 -4.13814e-08
1.47346e-07 7.22189e-07 3.39332e-07
5.70285e-08 -7.57535e-09 -2.60879e-08
2.86447e-07 2.53787e-07 -5.33807e-09
1.7983e-07 1.92035e-07 -5.10482e-09
8.30664e-08 2.52523e-08 -7.17567e-08
-1.92706e-06 2.40794e-06 1.23561e-07
9.26784e-07 7.00521e-07 1.39339e-07
1.00354e-06 6.10626e-07 -2.83577e-08
1.20333e-08 7.27703e-08 -4.02806e-08
1.0543e-08 5.68184e-08 -1.90734e-08
1.01865e-07 3.46963e-07 1.80908e-07
-2.35819e-06 3.9419e-06 1.26456e-07
1.4134e-07 1.22433e-07 5.45599e-09
3.34831e-06 7.01097e-07 -9.40651e-07
4.28983e-06 8.03503e-07 -1.77356e-06
-1.10418e-08 2.10856e-08 1.13187e-08
-1.30051e-08 2.0462e-08 1.31392e-08
-2.93135e-05 7.06143e-06 7.95021e-06
-2.87888e-05 5.24593e-06 4.75571e-06
-3.17571e-06 1.8914e-06 -2.73335e-07
-2.89169e-06 1.41163e-06 -2.26442e-07
3.05235e-08 2.14607e-07 -1.85699e-07
5.68047e-08 2.41639e-07 -2.22351e-07
1.67702e-08 1.68126e-07 1.00048e-07
1.6174e-09 1.43631e-07 8.79936e-08
-4.59335e-08 1.95292e-07 2.50977e-07
-1.92462e-07 1.51409e-07 1.58017e-07
2.47331e-07 2.07314e-07 -1.89781e-07
5.56377e-07 2.52419e-07 1.13185e-07
3.72496e-07 2.76203e-07 -7.95083e-08
1.56807e-07 2.98678e-06 8.36521e-07
-2.40818e-07 1.67725e-06 4.67284e-07
-2.04178e-06 3.05054e-06 -2.13255e-08
1.51786e-08 2.88128e-08 6.04997e-08
8.08036e-05 1.40464e-05 2.79851e-05
8.72118e-05 1.62772e-05 3.29218e-05
3.9805e-08 3.35974e-10 -4.9791e-08
3.44435e-08 -2.80594e-09 -2.20883e-08
6.36441e-07 3.46425e-07 1.29952e-08
2.79542e-08 2.93678e-08 6.32505e-08
2.70921e-07 2.8511e-06 5.3664e-07
-1.61292e-06 3.78477e-06 -3.52226e-07
-2.20723e-08 1.32484e-08 -1.00786e-08
-3.74076e-08 3.38421e-08 1.53986e-08
1.25763e-06 8.60977e-07 -4.88641e-08
1.11862e-06 1.53577e-06 2.45183e-07
-5.09473e-08 1.01816e-07 -6.70692e-08
-4.43421e-08 1.14422e-07 -8.04513e-08
5.24766e-08 1.43895e-07 -5.36904e-08
6.86313e-08 1.52743e-07 -5.03954e-08
9.71625e-07 2.32709e-06 6.86366e-07
1.06704e-06 2.25867e-06 7.93144e-07
-3.97918e-08 9.73779e-08 1.46561e-09
-2.79059e-08 7.3531e-08 5.12348e-09
5.99655e-08 9.71978e-08 1.04206e-07
1.76278e-07 3.48206e-08 -6.619e-08
-1.83047e-08 1.21126e-08 -1.75186e-08
-1.73222e-08 7.34169e-09 -1.60936e-08
-2.4785e-06 3.01783e-06 -2.33899e-07
-2.27585e-06 3.89381e-06 -1.7104e-07
1.40559e-08 8.70028e-08 7.28036e-08
-3.93705e-08 5.73998e-08 9.97728e-08
-1.08301e-08 1.24343e-08 1.34419e-09
1.09445e-05 5.86232e-06 2.54531e-06
-2.07123e-08 3.6925e-08 2.50354e-08
-2.91601e-07 4.74591e-06 -6.81589e-08
2.35696e-07 3.78648e-06 -1.77176e-07
-8.68827e-07 6.5948e-06 5.47175e-07
-3.20594e-06 5.23156e-06 1.0488e-07
-2.19346e-06 4.07794e-06 5.17632e-09
-1.30331e-06 2.17532e-06 -2.43468e-07
5.86441e-09 4.48767e-08 5.62702e-08
2.56791e-09 1.26384e-08 1.13031e-09
-3.35213e-09 4.39841e-09 -9.45522e-09
3.91918e-07 3.76696e-07 -2.28868e-07
9.63661e-07 1.64038e-06 -2.14048e-07
5.41886e-07 5.52518e-07 -3.39182e-07
1.32872e-09 2.87771e-08 3.04134e-08
-9.84954e-09 1.057e-08 1.09435e-08
-2.96864e-09 1.08715e-08 2.47747e-09
2.04196e-08 1.5584e-08 4.0141e-08
2.74966e-08 6.4474e-09 4.35379e-08
1.42606e-08 3.62872e-09 2.66381e-08
1.69061e-08 1.81085e-08 3.83788e-08
4.02125e-08 3.44652e-08 8.50937e-08
2.41558e-07 2.92086e-07 -8.70602e-08
4.17337e-08 2.94957e-08 7.96984e-08
-5.57911e-07 4.74375e-06 -3.8814e-07
2.20807e-06 2.72451e-06 -2.44589e-07
2.0585e-06 3.16972e-06 -4.80712e-07
-2.53222e-08 2.02928e-07 1.86513e-07
-6.94863e-08 2.98006e-07 2.65303e-07
4.63163e-06 2.77451e-06 1.53471e-06
5.43329e-06 2.37923e-06 6.59891e-07
4.51193e-07 3.34272e-07 -4.0871e-07
1.26622e-06 5.64053e-07 -3.08242e-07
2.36899e-05 1.74665e-05 1.77193e-05
1.90483e-06 2.08733e-06 2.48901e-07
1.66978e-06 8.35342e-07 6.98352e-09
2.29168e-05 1.94739e-05 2.16675e-05
-1.01174e-06 3.20417e-07 -6.1653e-08
-1.07066e-06 3.76294e-07 -1.20875e-07
4.1761e-09 1.35692e-08 3.78976e-08
2.11739e-10 1.87874e-08 4.13375e-08
1.00622e-06 5.36582e-07 9.53425e-08
1.00159e-06 6.50829e-07 -3.40129e-08
5.96501e-08 8.37739e-08 -1.94391e-08
4.33851e-05 1.98182e-05 -2.97096e-05
4.34857e-05 1.95887e-05 -3.24736e-05
3.43405e-08 8.63259e-08 1.60513e-08
4.39314e-08 -2.27356e-08 2.96222e-09
4.50559e-07 3.84706e-07 2.32959e-07
2.26665e-07 1.43931e-07 1.0377e-07
6.57281e-07 3.57299e-07 -2.73029e-07
7.89356e-07 3.76614e-07 -3.01271e-08
-6.07285e-09 1.15808e-07 -1.08133e-08
1.22605e-07 1.5992e-07 -6.03382e-08
4.07611e-07 2.32344e-06 -7.85013e-07
1.23355e-06 9.57404e-07 3.94624e-08
8.21246e-09 -2.07513e-09 -1.13588e-08
-1.18376e-09 -7.56383e-10 1.2138e-08
2.51622e-05 6.96287e-06 7.55276e-06
2.63826e-05 8.61743e-06 1.1351e-05
-4.3581e-08 5.00926e-08 -1.0312e-07
-2.93681e-08 6.48662e-08 -1.26496e-07
9.63625e-07 9.30727e-06 2.23341e-06
1.26711e-07 1.54932e-07 -2.19471e-07
1.23987e-07 1.79779e-07 -2.36523e-07
4.3021e-08 1.53113e-07 1.75794e-07
9.02766e-08 2.45082e-07 2.75117e-07
2.30014e-06 7.15755e-07 -3.82342e-07
-5.60291e-07 6.16247e-06 9.86123e-07
-2.20174e-06 3.70302e-06 6.06914e-07
7.4388e-07 1.25399e-07 -2.33669e-07
2.61117e-07 5.93931e-07 3.6572e-07
3.17235e-07 9.00759e-07 5.30351e-07
-6.31448e-08 8.26352e-08 -1.34432e-07
-6.18481e-08 6.01297e-08 -9.96236e-08
1.23239e-07 2.32827e-07 -1.68887e-07
2.70816e-08 1.47065e-07 -1.00144e-07
-3.20485e-05 1.60918e-05 -2.25042e-05
-3.22573e-05 1.55503e-05 -1.96879e-05
2.6096e-06 1.16112e-06 1.52268e-07
2.27942e-06 1.32708e-06 -2.2965e-08
-5.60032e-07 1.32232e-07 1.53964e-08
-1.33772e-06 1.58231e-08 4.40272e-07
-1.21129e-06 1.11217e-06 -1.71022e-07
9.5965e-07 1.01854e-06 8.44587e-08
2.71439e-07 2.76574e-07 3.56703e-08
4.47489e-05 2.92041e-05 4.29772e-05
-6.06852e-06 3.16647e-06 1.76171e-06
5.32699e-05 2.61889e-05 4.05931e-05
-2.4125e-09 7.70241e-09 -9.16869e-09
-1.57418e-09 6.01766e-09 -6.842e-09
0.000115177 3.26043e-05 6.81123e-05
0.000102362 3.65525e-05 7.06269e-05
-7.85859e-10 -5.73759e-10 1.4101e-09
-1.32588e-09 6.0211e-10 2.74641e-09
3.84802e-07 5.50898e-07 -4.0801e-08
3.37047e-07 6.02941e-07 -1.09726e-07
3.77272e-05 2.82847e-05 -3.35383e-05
4.11311e-05 2.73269e-05 -3.4598e-05
1.94858e-07 7.68096e-08 -1.01535e-07
-4.12606e-09 -1.76667e-09 6.89779e-09
2.39151e-07 1.8919e-07 -1.93418e-07
1.23009e-08 1.2658e-07 -1.0326e-07
2.22286e-07 3.57427e-08 -8.14275e-08
1.43571e-09 1.33949e-07 3.63411e-08
5.38143e-07 2.87417e-07 1.14467e-07
5.81035e-07 3.13189e-07 4.17427e-08
9.91534e-08 1.39961e-07 1.32249e-07
8.96417e-08 3.85572e-09 -5.36257e-08
2.32638e-06 3.76639e-06 -2.8403e-07
2.78534e-05 4.29905e-06 -2.06889e-06
-3.45006e-08 2.77612e-07 7.90813e-08
-6.75114e-08 3.75747e-07 1.03885e-07
2.4391e-05 4.04999e-06 -4.41028e-06
2.62835e-05 4.43009e-06 -4.61525e-06
4.70336e-08 9.25201e-08 -2.77463e-08
6.56571e-08 1.84498e-07 -3.74644e-08
3.51214e-05 3.66699e-05 6.78492e-05
-1.59791e-06 3.15459e-05 5.24555e-05
0.00019521 8.57608e-06 2.59317e-05
0.000177489 1.00546e-05 2.53663e-05
-9.15686e-07 2.85881e-05 4.62009e-05
2.95277e-07 2.19694e-07 3.023e-09
8.41206e-07 4.57513e-07 -1.41792e-07
1.03263e-07 1.77489e-07 -4.9945e-08
7.59155e-07 5.77958e-07 1.31443e-07
6.90352e-08 2.03155e-07 -6.01909e-08
8.16361e-08 1.71098e-07 3.73033e-09
4.17292e-07 -1.70566e-07 3.887e-07
4.28686e-07 3.1666e-07 -2.69916e-07
3.94579e-07 4.00127e-07 -3.36804e-07
5.35025e-05 1.69462e-05 2.84774e-05
5.75207e-05 1.58655e-05 2.74601e-05
6.88423e-07 -3.13349e-08 4.66387e-07
5.12445e-07 2.89385e-07 1.7852e-08
-7.52016e-08 3.56205e-08 3.09142e-09
-1.05005e-07 5.70206e-08 1.973e-08
3.73455e-05 4.36417e-05 6.52173e-05
1.39432e-05 3.9598e-05 5.54666e-05
7.47565e-07 4.21791e-07 2.73552e-07
9.1484e-07 3.50086e-07 2.86239e-07
2.04243e-07 1.5945e-07 8.83531e-08
3.20732e-07 3.72724e-07 1.66951e-07
1.00207e-07 9.70047e-08 -1.29589e-07
1.13414e-07 7.54347e-08 -1.10442e-07
1.37704e-09 1.01327e-08 1.40599e-09
9.67851e-10 9.95279e-09 1.81508e-09
8.65515e-08 6.20263e-08 -9.42978e-08
3.51584e-09 2.45741e-09 -8.44525e-09
-1.16387e-09 4.54777e-09 -5.11389e-09
2.92004e-05 1.34421e-05 -1.44238e-05
7.69091e-07 6.09106e-07 2.42093e-07
7.96673e-07 5.75189e-07 1.08289e-07
2.52506e-05 9.57286e-06 -1.06056e-05
2.83959e-05 1.33275e-05 -1.62007e-05
4.02867e-09 1.34942e-08 -2.91308e-08
4.19226e-10 7.21953e-09 -1.48503e-08
7.1124e-08 2.68806e-07 2.05087e-07
2.06574e-07 2.49479e-07 2.0937e-07
1.54881e-06 1.07573e-06 8.13579e-07
1.92628e-06 9.68499e-07 5.27457e-07
1.82305e-09 6.8523e-09 6.17841e-09
5.30076e-10 7.3311e-09 7.30235e-09
3.22176e-07 2.296e-07 -4.80444e-08
5.04492e-10 2.86978e-09 5.95691e-09
-2.80767e-08 1.97144e-08 -9.84196e-09
-2.13092e-08 9.79155e-09 3.41625e-08
3.04068e-07 2.32681e-07 5.66788e-09
3.92376e-07 3.05554e-07 1.79038e-08
1.27855e-08 -1.80584e-09 2.77277e-08
-1.9824e-09 1.15158e-08 4.18842e-08
2.09042e-09 -5.52992e-09 -1.55877e-08
-1.85048e-06 1.87306e-07 6.57376e-07
5.12344e-08 -2.00863e-08 -1.3786e-09
-1.91945e-06 2.36627e-07 4.64403e-07
5.64615e-07 1.48136e-06 2.49889e-07
4.89737e-07 1.00104e-06 1.62496e-07
1.14726e-07 3.18603e-07 1.67631e-07
1.50678e-06 5.16547e-07 -1.90783e-07
4.73823e-07 2.11237e-07 1.42104e-07
4.85514e-07 2.94721e-07 1.40786e-07
1.5883e-07 3.45062e-07 1.6271e-07
-3.95537e-08 1.97851e-07 1.89448e-07
-1.88614e-08 2.09493e-07 1.84151e-07
4.19888e-08 1.11168e-08 -4.66671e-08
6.88143e-08 6.33585e-08 -5.18015e-08
2.19768e-07 1.2077e-07 -1.24986e-07
5.65622e-07 8.61157e-06 1.50433e-06
7.49907e-09 9.74474e-09 3.71211e-08
2.42294e-09 8.43702e-09 2.56858e-08
1.04996e-06 7.37569e-07 -1.6693e-07
8.08247e-07 1.03446e-06 -2.31177e-08
1.70811e-06 1.07144e-06 -5.52964e-07
1.26153e-06 8.50184e-07 -4.23771e-07
1.04136e-06 9.99521e-07 3.65995e-07
3.49399e-07 2.95054e-07 -2.29056e-09
3.23022e-07 2.62183e-07 7.50589e-08
2.75746e-07 2.1767e-07 -2.0347e-07
-1.16556e-08 1.92798e-08 8.34408e-09
-7.98961e-09 2.41193e-08 -1.10933e-09
-8.34882e-09 2.36246e-08 -3.23961e-09
7.26899e-08 2.82561e-08 -7.55301e-08
1.38087e-08 5.44539e-08 -8.29775e-08
7.31699e-08 1.11017e-07 -1.77432e-07
-1.07738e-08 6.45899e-08 -7.10682e-08
1.28541e-07 1.99509e-07 1.48542e-08
3.37272e-06 5.75204e-06 -3.60911e-07
2.62855e-08 2.03655e-08 6.65863e-08
1.92255e-08 1.98305e-08 6.81577e-08
1.16793e-06 2.53138e-07 1.82284e-07
3.24455e-06 1.07463e-06 -3.89321e-08
1.386e-07 2.44319e-07 -9.87227e-08
1.86101e-07 1.43733e-07 -9.42159e-08
1.26246e-07 5.85087e-07 4.83167e-08
-4.25729e-08 9.98261e-07 8.7622e-08
2.16559e-08 7.29603e-08 8.05476e-08
1.61953e-08 7.41278e-08 7.34151e-08
2.12378e-08 2.26816e-08 -4.15019e-08
1.87597e-08 3.63903e-09 -1.63682e-08
1.61847e-08 3.27236e-09 2.31901e-08
1.82989e-08 1.21576e-08 3.92467e-08
1.51569e-08 1.70619e-08 -3.38949e-08
6.89214e-06 3.81965e-06 1.34257e-06
2.50484e-05 1.80283e-05 -1.45247e-05
-4.49793e-09 2.26483e-07 2.83095e-07
-1.19252e-07 1.83508e-07 2.21192e-07
7.96989e-07 1.5898e-06 -2.6941e-07
6.8626e-07 1.90423e-06 -2.29216e-07
0.000144915 1.0588e-05 2.65257e-05
0.000131602 1.21956e-05 3.12434e-05
2.31737e-05 1.57068e-05 -1.26201e-05
6.9444e-06 4.961e-06 2.37757e-06
-8.71763e-07 7.0844e-07 -1.77402e-07
-9.05431e-07 6.18141e-07 -1.67907e-07
4.57583e-06 3.78534e-06 1.61781e-06
2.19463e-05 1.58705e-05 1.52357e-05
1.99355e-05 1.28932e-05 1.20528e-05
1.3685e-09 -6.27444e-09 2.16411e-08
-2.0934e-08 1.52443e-08 -1.27628e-08
-1.39018e-07 6.71882e-08 6.39144e-08
1.87464e-05 1.28882e-05 1.10342e-05
-1.96789e-07 5.83922e-08 -4.8846e-08
-1.54933e-07 7.33891e-08 2.19789e-08
-4.49682e-07 2.79547e-07 -2.04946e-07
-2.76816e-07 1.59459e-07 -1.23478e-07
-1.92868e-07 7.3918e-08 -1.01314e-08
1.25001e-06 5.26087e-06 -2.1472e-07
9.4829e-09 5.31851e-09 -5.87502e-09
9.88346e-09 7.17897e-09 -1.06261e-08
-1.33227e-08 3.22079e-08 -1.58828e-09
7.89981e-09 2.24982e-08 1.73986e-08
-5.11684e-09 1.36236e-08 9.20455e-09
-1.47269e-08 2.74841e-08 1.07688e-08
-1.81998e-08 2.38915e-08 5.86806e-09
-3.15947e-08 5.4876e-08 -5.32263e-09
4.38788e-08 2.76951e-09 -4.89057e-08
2.67424e-07 3.1377e-07 4.10407e-08
2.71062e-07 1.53794e-07 -1.03721e-07
1.99561e-07 1.88289e-07 1.82821e-08
-2.26336e-08 9.55453e-08 -1.30587e-08
9.64748e-07 4.46222e-07 1.31108e-08
-4.14936e-06 3.82559e-06 2.43274e-06
-2.95603e-06 3.91168e-06 2.38811e-06
-9.9232e-07 3.9582e-08 3.94972e-07
-8.63301e-07 -5.93055e-08 5.79966e-07
1.48841e-06 7.01249e-07 -2.86719e-08
1.36135e-06 2.59436e-07 4.58739e-07
-1.50569e-08 1.00506e-08 5.91409e-08
-4.94856e-07 -2.30224e-08 -4.74063e-07
-8.57325e-07 5.78603e-08 -4.32649e-07
-4.57243e-09 8.59093e-10 5.47979e-09
-1.17475e-08 6.61124e-09 1.30332e-08
-1.10644e-08 -6.07504e-10 -1.44498e-09
1.64095e-07 4.90502e-07 1.26689e-07
1.3154e-07 4.77427e-07 9.98944e-08
-2.69226e-08 2.22773e-08 2.15146e-08
3.40517e-07 2.38334e-07 -2.65285e-07
-4.51961e-08 2.76296e-07 1.28212e-07
-1.4421e-06 2.1114e-06 3.5671e-07
-1.37817e-06 1.99389e-06 2.85786e-07
-1.46268e-07 2.53443e-07 1.28956e-07
-7.65578e-08 1.02831e-06 -7.23084e-08
-1.4876e-08 1.09241e-06 -1.05924e-07
3.18356e-07 5.8254e-07 -3.55933e-08
-2.59078e-08 2.6925e-08 3.36922e-08
1.59719e-06 2.50453e-06 -8.61479e-07
1.78365e-06 1.84242e-06 -3.85444e-07
-6.5775e-08 2.03987e-06 -9.42868e-07
-3.29033e-08 3.79785e-09 -8.82708e-09
3.34065e-05 2.13477e-05 3.01947e-05
2.67935e-05 2.07996e-05 2.73477e-05
8.27117e-09 -4.18515e-10 -1.14093e-08
4.637e-09 7.78909e-08 3.50721e-08
3.93265e-05 2.23509e-05 -2.8599e-05
1.67852e-08 1.34401e-07 6.57078e-08
2.54395e-08 2.81397e-08 5.69973e-08
4.19519e-08 2.39125e-08 5.71245e-08
3.63061e-07 3.65931e-07 -2.97921e-07
2.7525e-08 2.42235e-08 4.4874e-08
2.86913e-06 5.70325e-06 -1.00941e-06
3.60461e-06 4.28766e-06 -6.19397e-07
1.40844e-08 6.7169e-08 8.75411e-08
-1.2399e-08 7.23252e-08 2.0933e-08
-2.62338e-08 1.39193e-08 2.92868e-08
-1.37547e-08 3.22233e-10 8.14815e-09
6.99541e-06 1.48179e-06 -3.94586e-07
8.80963e-06 2.17685e-06 -3.38887e-06
-2.45689e-06 2.08585e-06 1.28357e-07
-1.72061e-07 3.86408e-07 4.4566e-08
2.28976e-06 9.13785e-07 -1.94354e-07
-5.95981e-08 7.89069e-08 7.80993e-09
-2.46338e-08 9.25651e-08 -5.14013e-09
-1.7373e-06 1.1615e-07 6.49762e-07
-1.96418e-06 4.43074e-07 -2.88579e-07
-9.13456e-07 2.14631e-07 -9.91017e-08
-1.07154e-06 1.2483e-07 -3.70842e-07
-7.29697e-08 9.74353e-08 -6.23919e-08
-4.46085e-07 3.75071e-07 2.36094e-09
4.83897e-07 1.62827e-07 -2.51863e-07
4.83913e-07 1.80867e-07 -2.02761e-07
-4.6795e-07 3.87322e-07 7.98007e-09
6.82507e-07 4.82382e-06 7.38162e-08
1.69892e-06 4.16073e-06 1.36843e-08
1.14683e-06 3.76808e-06 1.71963e-07
1.36751e-08 1.5547e-08 5.61128e-08
7.17176e-06 1.54096e-06 2.17914e-07
7.95986e-06 1.70036e-06 -1.06478e-06
-1.42575e-06 6.46886e-06 -1.13152e-06
1.31436e-08 -2.17532e-09 1.55817e-08
1.922e-06 4.27824e-06 5.81966e-08
3.76674e-06 7.42655e-06 3.86607e-06
4.60017e-06 5.75405e-06 2.52057e-06
8.30498e-06 7.21959e-06 3.41144e-06
1.13106e-07 4.1545e-07 7.15595e-08
8.26461e-08 5.33006e-07 5.27363e-08
-3.2869e-07 1.51477e-06 1.74631e-07
-9.07128e-08 8.55244e-07 1.03943e-07
6.63678e-07 2.89736e-07 1.43681e-07
3.57953e-07 5.24251e-07 1.08176e-07
1.87435e-06 6.34917e-07 -2.59208e-08
2.43622e-06 1.00189e-06 3.39235e-07
-3.83707e-08 9.80812e-10 2.97234e-08
-3.2793e-08 -2.56576e-09 1.5326e-08
7.48557e-08 1.80328e-08 -7.99332e-08
5.91066e-08 8.02508e-09 -4.8515e-08
-2.22279e-08 7.36115e-08 1.10859e-07
1.56666e-08 6.02164e-08 1.17966e-07
-1.54735e-08 6.21846e-08 1.03589e-07
2.63513e-07 1.00563e-07 2.01031e-07
3.9214e-07 2.38107e-07 -5.92897e-08
5.50928e-07 2.59276e-07 1.39127e-07
2.31395e-08 7.40183e-08 -8.07525e-08
1.24814e-08 7.55238e-08 -7.7072e-08
-3.65532e-08 5.67156e-07 -3.28999e-07
3.60393e-08 3.32312e-07 -1.97986e-07
-6.15582e-07 3.18853e-06 -5.68627e-07
-1.18672e-06 2.41076e-06 -4.38562e-07
-1.43022e-08 6.23223e-08 -5.5148e-08
2.0276e-07 -1.35957e-09 -4.07617e-08
-2.11699e-08 5.12246e-09 1.21173e-08
1.32289e-08 3.26818e-08 -5.05735e-08
-1.39744e-06 3.91818e-06 -1.70295e-07
-7.70177e-08 3.68701e-07 -2.73797e-07
-1.38794e-07 3.20305e-07 -2.25889e-07
1.93482e-05 2.63088e-05 2.59935e-05
1.61926e-06 8.29832e-07 1.18824e-06
7.63454e-05 6.63408e-06 6.87015e-06
8.53275e-05 6.86788e-06 -3.59593e-06
7.05994e-05 7.00992e-06 -1.13223e-05
8.26704e-05 6.65799e-06 -7.63853e-07
1.82424e-06 8.14726e-07 1.09727e-06
1.85981e-05 2.22301e-05 2.12294e-05
1.71789e-05 2.22619e-05 1.96027e-05
4.51116e-08 2.86742e-08 -8.02108e-08
-2.52921e-08 5.64668e-09 -2.78258e-08
-1.23684e-08 4.66612e-09 -5.1056e-08
5.068e-08 1.78929e-08 -6.63962e-08
2.28196e-08 8.16947e-09 -3.23444e-08
1.36556e-07 2.4014e-07 8.51352e-08
1.01686e-07 3.54218e-07 2.11203e-07
-6.22563e-07 8.10525e-08 2.31296e-07
-1.89412e-05 8.01007e-06 -7.88978e-06
-2.02426e-05 7.82084e-06 -8.09495e-06
-8.38621e-07 7.96748e-07 -2.21008e-07
2.08752e-07 2.00764e-07 -1.62884e-07
3.60597e-07 3.79738e-07 1.09089e-07
1.85382e-07 5.06934e-07 -2.68896e-07
1.74569e-07 2.13542e-07 -1.43381e-07
1.27145e-07 4.60182e-09 7.57279e-08
1.04202e-07 5.51233e-08 1.33124e-07
6.57145e-08 3.31088e-08 8.60158e-08
1.12793e-06 1.52609e-06 -1.03125e-07
1.2522e-06 1.71953e-06 -1.06026e-07
-3.48224e-05 1.66018e-05 -2.56165e-05
-9.95697e-08 2.09317e-07 4.23727e-09
3.47724e-08 6.79718e-09 2.28635e-08
-2.94e-08 6.96737e-08 1.26571e-07
5.99015e-07 1.82817e-06 -1.93631e-07
6.29783e-07 1.3357e-06 -1.63525e-07
-5.64974e-08 9.39222e-08 -2.08509e-09
1.15196e-07 1.83652e-07 4.58105e-09
-1.1144e-07 1.67299e-07 -1.25558e-08
-1.72592e-05 1.24361e-06 -5.95724e-07
2.65317e-09 1.10923e-07 -5.36184e-08
-4.0295e-09 9.45832e-08 -4.70416e-08
-1.09652e-05 7.32151e-08 -1.70891e-06
7.76504e-07 7.09332e-07 -2.42871e-07
-1.45141e-05 2.80612e-06 2.02324e-06
-1.11086e-08 1.013e-07 2.3714e-09
1.56651e-06 5.89307e-07 1.13367e-07
1.74336e-06 4.63723e-07 4.44769e-07
2.386e-09 6.64875e-08 -3.42161e-08
-9.03275e-09 7.88997e-08 2.40893e-08
1.12434e-07 2.00578e-07 -1.19355e-07
1.78673e-08 -1.06995e-08 -1.72566e-08
1.76305e-08 1.88159e-10 -3.61777e-08
4.39364e-07 4.52894e-07 -1.17936e-07
5.44338e-07 3.81518e-07 6.79201e-08
2.55876e-06 1.99353e-06 7.80606e-07
2.99505e-05 2.32437e-05 2.97708e-05
2.32678e-05 2.30583e-05 2.7586e-05
1.77078e-08 8.03627e-10 3.00316e-09
-1.56657e-08 2.01067e-10 -1.55731e-08
2.36731e-05 2.28059e-05 2.54533e-05
3.54135e-07 9.49713e-08 1.52294e-07
1.81971e-07 1.41124e-07 1.58905e-08
-2.14342e-08 5.53156e-08 -1.26138e-09
-1.06277e-07 2.06849e-07 1.85808e-07
-9.44287e-08 2.27229e-07 1.8666e-07
-4.10503e-07 3.44541e-06 2.94234e-07
-1.01623e-07 4.28161e-08 4.03433e-08
-2.4614e-08 1.23383e-07 9.73266e-08
-1.83171e-05 2.92177e-05 -4.92224e-05
-1.47127e-05 2.84762e-05 -4.36887e-05
-5.63205e-07 3.43312e-06 3.07151e-07
1.06606e-06 1.17697e-06 -2.2534e-07
-1.8253e-07 2.94639e-06 3.91912e-07
-2.62191e-09 -3.81224e-09 -2.22854e-08
3.83451e-07 7.8145e-07 -1.84824e-07
7.46318e-06 3.24615e-05 -3.19085e-05
4.29662e-07 5.85559e-07 -7.60151e-08
8.8899e-07 5.95072e-07 5.95826e-07
5.85092e-08 1.03222e-07 -5.18065e-08
-3.23878e-08 4.6856e-08 3.03033e-08
9.04401e-09 2.19405e-09 -3.59646e-09
-4.24549e-09 3.29337e-09 -2.12029e-08
-2.05038e-05 1.87952e-05 -1.84754e-05
-2.99664e-08 6.1936e-08 9.69901e-08
1.2296e-06 4.698e-07 -1.46266e-07
-5.54821e-09 -2.72103e-09 2.06929e-09
6.9555e-08 1.33616e-07 1.46397e-07
2.25739e-08 7.8546e-10 2.28654e-08
1.32074e-05 2.30555e-05 -1.7106e-05
2.55422e-07 8.93241e-08 -1.03633e-07
1.3296e-05 2.35474e-05 -1.94817e-05
0.000289502 5.51684e-07 -3.5463e-05
0.0002674 3.43694e-06 -4.23052e-05
1.6162e-08 9.90875e-08 9.51692e-08
0.000168476 2.597e-05 -7.52312e-05
1.42184e-08 1.11684e-07 9.14557e-08
-5.21124e-08 6.63563e-08 1.2048e-08
-6.03514e-08 4.84148e-08 -6.10321e-09
4.37936e-08 1.53773e-07 1.29991e-07
1.00279e-06 1.03763e-06 -3.28806e-07
1.45334e-08 1.50544e-10 -9.23566e-09
3.39522e-07 2.61231e-07 -8.4813e-08
3.35642e-05 3.17917e-05 -3.47441e-05
3.41258e-07 1.8488e-07 7.49926e-08
3.45504e-07 1.49237e-07 1.34796e-07
3.50964e-07 1.76614e-07 1.14381e-07
3.16368e-05 2.33824e-05 3.26887e-05
-8.88647e-08 4.77723e-08 -1.7233e-08
-7.7948e-08 4.10135e-08 -4.51697e-08
-1.70658e-07 1.00108e-07 -8.34567e-09
-2.99909e-07 2.50981e-07 -6.51238e-08
3.54516e-05 2.69302e-05 3.71942e-05
7.2434e-06 3.83988e-06 -1.17182e-06
3.1788e-06 4.3241e-06 -1.99668e-06
3.52159e-06 4.394e-06 -1.87722e-06
0.000188498 6.74351e-06 -2.37294e-05
0.000176368 7.58038e-06 -2.1679e-05