# vtk DataFile Version 2.0
S, Created by Mohamad Ibrahim Cheikh
ASCII
DATASET UNSTRUCTURED_GRID
POINTS 10490 double
-223.577 20.3383 -34.7914
-223.732 23.2833 -32.7642
-130.494 -29.3209 69.2782
-194.385 -37.8826 -41.0223
-207.477 29.5026 40.042
-235.881 27.3945 13.4743
-191.276 -39.7124 -41.0808
14.4405 -3.17343 87.7975
-191.088 39.2076 -41.6684
-193.43 36.9202 -42.428
-251.147 3.2111 -3.3801
-251.007 5.4614 -0.71455
-204.328 29.2926 -42.1244
18.6471 -1.58619 87.7435
-201.232 30.3616 -43.1792
-151.393 68.7292 -14.6365
-148.62 69.9367 -12.1917
241.381 21.7602 -11.7088
240.378 24.3442 -8.7825
40.1875 72.8102 -47.3808
44.0009 72.1093 -48.0335
45.493 -3.23789 -86.4878
49.3482 -1.53887 -86.2756
-145.563 -45.4986 -55.4954
-142.059 -46.9236 -55.4205
-191.797 -27.3673 49.9127
-189.472 -30.0451 49.4579
-64.339 -67.839 51.333
-66.4777 -66.0185 53.3338
-121.233 -41.6834 -64.8621
-205.502 44.602 24.1719
-208.44 41.8657 25.9231
-64.8777 -22.645 81.9505
-61.2361 -23.9566 81.9206
44.3502 4.12986 86.5224
-201.399 -44.918 27.5758
-54.4783 82.0807 -25.3654
-51.5524 81.6643 -27.3781
-109.542 -78.4118 -11.2477
-105.515 -79.2424 -10.0779
-195.509 42.6332 35.3083
-200.947 -43.0035 30.838
-54.4342 -15.3757 84.527
3.54437 8.21068 87.6073
226.255 36.0722 -13.2452
223.494 37.2783 -15.4584
-147.02 22.4057 -67.7913
-143.854 23.6489 -68.1993
-167.021 -43.0253 -49.7746
-163.502 -43.4804 -50.7988
-215.267 -7.16079 -44.9365
-215.168 -3.16509 -45.4511
-105.651 -17.6603 77.8814
-104.115 -21.195 77.2504
-247.959 -12.5244 7.7245
-247.222 -12.2256 10.5722
-226.225 -18.8478 33.512
-129.028 -40.8345 -63.5477
238.447 4.07536 -27.6832
236.191 2.11791 -30.159
30.7294 -3.7901 -87.2584
26.7529 -2.07445 -87.4761
-224.961 -22.5413 32.2492
-47.66 -75.8727 41.3429
-235.553 -26.7708 15.3058
-110.531 51.0845 -60.3211
-237.919 -25.2897 13.1985
-16.8317 -1.56238 -87.7888
-20.0232 -4.08218 -87.6256
25.3137 7.39093 -87.2406
27.4335 3.60687 -87.4005
25.4932 1.63861 -87.5314
45.9936 -6.3634 -86.2816
-242.159 -16.9756 16.6251
249.587 -5.3692 -9.40944
249.111 -2.3026 -11.8806
-169.146 48.1597 43.8391
30.4395 -13.5098 -86.3021
-165.523 47.9276 45.7452
-244.371 -14.4435 14.9725
243.986 6.92781 20.1941
244.544 3.56422 20.2422
-218.53 -34.253 26.9075
-142.146 -69.411 21.2685
-139.63 -70.7398 18.786
-221.096 -32.0566 27.0474
-157.971 -59.8004 33.3568
-205.042 32.4577 39.2844
-154.32 -61.3641 32.601
21.3226 7.29245 87.3794
-119.106 18.4691 75.2733
-116.433 20.546 75.2469
25.5783 -59.0353 64.6432
29.1137 -57.6655 65.688
-134.638 54.9873 -50.0106
-136.958 52.5116 -51.8657
-177.099 57.9125 23.4567
-176.718 59.3817 19.8598
-70.5292 64.8866 -54.0806
-62.7959 16.9158 -83.5169
-66.4076 16.9239 -83.1725
-66.9965 66.4028 -52.7743
124.478 57.7399 50.1306
121.046 58.3459 50.4568
-132.441 -69.8473 26.7929
-132.815 -68.0013 30.9867
-188.881 35.1107 46.2969
-185.134 37.2787 46.455
-232.727 13.1727 -30.6497
-60.8027 74.7308 41.312
-62.0763 76.2625 38.1607
-231.928 16.7969 -29.6019
-175.272 -46.957 -42.1659
-178.796 -11.236 60.8596
-181.802 -8.37795 60.2267
-195.832 53.747 12.651
-198.387 52.0599 14.6699
-195.137 -6.40582 -55.1455
-196.112 -2.36683 -55.0429
-155.762 25.0105 64.4056
-159.484 22.4702 64.2265
-196.211 -54.5515 -7.39845
-193.182 -56.048 -5.79669
-91.6404 75.076 -32.8546
-87.6791 75.4537 -33.3098
-39.2308 -78.9683 -36.3261
-42.732 -77.6555 -38.6013
-35.7505 20.355 -84.6947
-119.252 -59.0802 -50.1244
-116.057 -58.393 -51.8192
-103.566 -58.9138 54.4058
-107.461 -57.2238 55.2776
-176.121 46.8942 -41.8007
26.9031 13.8801 -86.3871
23.828 15.7237 -86.1815
-175.615 44.5872 -44.4991
-89.4484 -39.5999 72.0852
-93.3188 -38.4673 72.0978
-1.7062 -75.0139 -46.0061
2.63281 -75.2497 -45.6139
-158.024 -33.2005 -59.8703
-154.737 -36.6347 -58.9109
26.5574 72.5412 48.943
28.9558 70.5063 51.6741
-166.626 38.7917 53.2917
-169.031 36.4145 54.0367
126.653 60.2608 46.3544
125.022 62.2373 44.2365
55.9307 20.2505 83.3722
-158.165 12.6285 67.2441
-155.549 9.85221 68.4447
-44.7012 72.6907 -47.0683
71.0459 53.0286 -65.681
-42.0825 74.3856 -44.6538
222.064 -27.8284 -30.5323
225.276 -26.0125 -29.2251
-17.9092 78.4634 -39.3474
-20.7508 77.2409 -41.5345
247.477 -7.06407 13.9944
245.671 -9.07241 16.5072
-182.898 19.8461 57.0492
-181.356 22.688 56.5908
-56.2165 68.1333 52.1051
-53.8962 69.9691 49.9268
-221.676 26.3858 -32.1172
245.289 -12.7014 14.7128
-123.34 -44.6631 -62.3433
-128.466 -46.9026 -59.36
-126.786 -44.2475 -61.7909
-219.064 -11.0554 41.7909
-206.378 49.874 -6.48306
-208.064 48.5111 -9.51828
-173.564 -35.1412 53.1127
-196.135 -34.8663 -42.6449
-56.8642 10.573 85.0666
-100.207 80.5677 4.84576
-149.824 -21.4722 67.3403
-153.214 -21.7196 66.3193
-106.221 79.7266 2.50778
-103.928 79.9375 5.62383
-208.26 -1.82689 -49.3007
-211.703 -0.42941 -47.5048
7.90276 76.0587 -44.175
9.42574 74.2868 -47.0594
-23.0251 85.4622 -19.3727
-25.016 84.4684 -23.0752
13.2061 73.9616 -47.4587
-209.323 34.904 -34.0775
-209.443 37.474 -31.1309
-243.671 12.2877 -17.9902
-206.009 40.0813 -30.6855
-237.953 16.7264 23.0658
-240.125 13.5329 22.3944
-198.677 34.6977 41.3208
-44.0979 -51.8652 -69.3968
-47.9424 -52.1849 -68.8428
-65.8368 77.9439 -33.7353
-62.7653 78.9382 -32.1006
-198.916 37.6915 38.4588
-195.388 39.9798 38.3621
193.195 51.8472 -22.0511
191.21 51.6114 -24.5779
-17.4969 71.7363 -50.6007
-15.9079 70.0808 -52.9311
-160.726 -8.68412 67.1257
-158.274 -5.14986 68.1946
-159.182 -12.1874 67.0314
-155.591 -13.9554 67.7154
-181.219 -39.3698 -46.6195
-187.07 -34.8955 -47.348
234.201 -8.1983 31.0077
231.367 -8.83978 33.3481
-185.725 -37.8064 -45.7338
-220.423 -36.332 -21.8072
-223.2 -33.1949 -23.2993
-74.9956 69.3392 47.4076
-199.263 43.3595 -31.6661
-202.428 40.5056 -32.9614
-79.6157 71.7762 42.6162
-75.8497 71.5177 43.8732
-199.863 -47.1008 -25.1998
-196.405 -49.1628 -24.5818
-156.239 -38.5676 57.1659
-155.218 -34.6088 59.9712
-162.937 56.2393 -36.48
-159.796 58.0693 -35.2948
245.94 -16.0779 8.95225
246.756 -13.0535 10.9094
-202.197 25.1197 -45.9088
246.469 -16.6406 5.45926
-222.674 -40.7298 -3.81009
-219.563 -42.6766 -4.53664
-225.918 36.4499 -12.9115
-224.094 36.2077 -16.8758
-228.901 -34.8682 10.6495
-231.376 -33.5775 7.89082
-225.472 -37.7615 9.6949
119.614 74.8208 19.8538
-172.164 -51.102 -38.7773
115.42 75.6345 19.8097
47.8999 12.1388 -85.5321
51.4889 10.7525 -85.4623
-180.223 -22.1806 57.2315
-179.975 52.3123 -32.2763
-165.459 0.844074 66.2686
-168.583 2.82005 65.2422
-181.022 -17.4232 58.5533
36.4529 -59.7576 63.3273
37.7868 -57.2109 65.5446
-159.985 -59.9395 -31.9
-182.768 -21.7991 -56.3835
-184.316 -18.0326 -57.0927
-11.9685 14.8825 -86.6312
-188.59 -54.998 19.1009
-192.466 -53.1212 19.6698
-145.958 9.32209 -71.0555
-143.751 12.1183 -71.1843
-174.401 52.3991 35.7004
-173.453 50.7014 38.5996
-187.198 39.6985 -43.3323
-231.504 33.4911 -7.7978
-229.098 35.9658 -4.96061
-234.908 30.8676 -5.9375
241.404 7.72059 23.4443
239.892 10.8364 24.102
240.61 13.4015 21.8298
-138.88 -61.8306 -39.4915
-138.123 -60.1636 -42.292
-141.497 -58.2522 -43.5828
-200.351 -41.1655 -33.6898
-218.718 20.1121 -38.5061
-52.7286 8.93899 85.5786
-56.68 -81.1833 27.5672
-60.1944 -81.461 25.7777
-152.621 56.1685 41.6812
-153.449 58.0333 38.6435
-189.415 -9.90216 -57.0383
-186.069 -8.88219 -58.5352
64.9082 -8.71754 84.5707
67.8928 -7.09047 84.4357
-196.835 -37.2206 40.1892
-200.415 -34.611 40.3549
-180.668 -48.246 -37.6838
-174.532 -52.0917 -36.07
-215.619 -38.509 23.8557
-218.655 -36.4151 23.7598
-178.254 -50.9821 -35.421
-121.729 47.8626 -60.3241
-71.7279 59.214 60.065
26.8711 -68.3038 54.6826
24.81 -66.5903 56.8715
-87.2091 -8.61895 -82.0888
-84.0278 -6.3169 -82.7022
-36.1741 85.3804 -17.1454
-39.4723 84.8285 -18.904
-75.508 59.7392 58.9677
-117.79 48.8481 -60.4914
67.1064 -10.9799 -84.0958
63.3575 -11.5834 -84.3704
-122.43 44.6569 -62.5672
-76.6536 63.6845 -54.4878
-80.1114 63.9674 -53.539
-210.937 -46.4386 -11.8322
-207.91 -47.2776 -14.7159
-70.3817 -66.9064 51.5855
-82.8837 61.4862 -55.8783
181.008 57.5717 -20.4498
187.795 54.7413 -20.7272
-57.9796 -57.7733 -63.2035
-60.2442 -59.9519 -60.8722
185.033 56.5046 -18.9616
-52.2292 4.83544 85.9456
170.803 -60.94 -21.4144
166.657 -61.8364 -22.7989
-242.16 -11.2312 20.9366
-241.443 -7.71483 23.3968
231.623 25.8607 -22.5155
229.371 25.1798 -25.8605
225.985 27.6871 -26.9258
-235.384 -18.9703 -24.5114
-234.85 -16.6288 -26.7371
-226.071 27.158 -27.3722
-222.955 28.4591 -29.1236
-220.771 31.3732 -28.151
-250.634 -7.29632 -0.178265
-176.064 45.2985 43.5534
58.7332 51.2058 -68.5538
59.7901 48.375 -70.4712
128.126 68.3791 32.5339
131.615 68.3054 30.9443
-176.96 47.6022 40.548
-181.06 46.7499 39.3046
18.7051 -86.4181 15.267
142.043 69.3648 -21.5022
141.112 68.3951 -25.0639
23.2386 -86.1703 15.892
181.098 -44.0246 42.3148
25.6369 -86.6618 12.3797
-189.029 21.6352 -53.8631
-189.449 17.8894 -55.044
-212.326 -45.0148 14.0791
-120.854 -47.0074 -61.2055
-24.3195 -37.2773 79.259
52.3454 18.4969 -84.0619
55.858 16.7114 -84.159
-25.2882 -41.126 77.294
-119.135 -6.55377 -77.2228
-115.757 -7.77052 -77.7374
-200.054 16.4634 50.7255
-215.148 -43.2647 14.3196
-153.455 32.9941 61.4194
-156.885 31.3279 61.2305
-157.692 28.1748 62.4959
-79.9671 -83.431 0.60314
-63.8758 72.3434 -44.843
-62.9885 70.3181 -48.1001
-79.8046 -83.3553 -4.02083
-209.642 -18.6829 44.8795
-60.8374 70.9498 47.5078
-205.671 -19.6763 46.6685
-191.284 -46.3889 33.3528
-190.154 -45.0081 35.9354
-195.138 47.318 29.0344
-192.217 -42.6385 37.4498
-97.7261 19.6973 78.656
-94.1626 20.9494 78.8643
-195.846 -41.8734 35.9821
-247.679 -8.81317 12.483
188.065 -42.022 40.5952
184.93 -44.2656 39.9693
-127.31 75.478 7.92132
-123.715 75.9957 9.73739
48.907 1.66209 86.3041
130.449 15.5864 -73.6049
-179.751 46.5066 -40.3155
198.596 13.1791 52.3603
200.491 9.43234 52.2854
113.379 74.8959 23.6811
109.643 75.3393 24.4171
149.578 63.7391 -30.6941
145.752 65.352 -29.5342
-166.874 -45.6715 -47.4217
129.851 19.3504 -72.8371
-209.811 43.7046 -21.0811
-206.951 46.1276 -19.3054
126.476 20.2024 -73.331
-61.9023 -0.405627 85.2918
-59.2116 2.53035 85.4889
-53.8659 -2.04077 85.9337
[...]
POINT_DATA 10490
VECTORS F double
2.20165e-08 3.07256e-08 7.11015e-10
5.42182e-08 5.05569e-08 -9.30726e-09
7.2841e-08 2.9002e-07 1.39518e-07
1.00105e-08 3.68413e-09 -9.2004e-09
1.20876e-07 1.0159e-07 1.77504e-09
4.39763e-08 4.68062e-08 -1.09229e-09
1.59469e-08 8.76268e-09 -1.75527e-08
-1.26436e-06 1.83023e-06 9.15596e-08
5.33288e-07 3.63464e-07 4.27328e-08
5.3408e-07 3.20828e-07 -1.87674e-08
2.05901e-09 1.21607e-08 -6.51004e-09
2.27307e-09 1.18728e-08 -3.90884e-09
7.21582e-08 1.41228e-07 5.54302e-08
-1.57118e-06 3.08613e-06 9.6616e-08
9.49135e-08 6.39982e-08 -9.10597e-09
2.88401e-06 4.94785e-07 -1.32771e-06
3.81976e-06 6.30991e-07 -2.07938e-06
-4.04177e-09 6.40805e-09 1.75628e-09
-4.77253e-09 6.62468e-09 2.42807e-09
-4.26973e-05 4.90357e-06 3.10144e-06
-4.03466e-05 6.60911e-06 5.39678e-06
-2.83687e-06 1.70866e-06 -2.46629e-07
-2.57351e-06 1.30972e-06 -2.0354e-07
9.18188e-09 6.75955e-08 -5.83521e-08
2.21966e-08 7.52329e-08 -7.06478e-08
1.17607e-08 4.02353e-08 2.75727e-08
7.96605e-09 3.14758e-08 2.28439e-08
-1.5815e-08 5.673e-08 7.25353e-08
-4.353e-08 5.3621e-08 5.97179e-08
1.26333e-07 9.41469e-08 -8.93918e-08
2.69456e-07 1.28144e-07 4.3796e-08
1.89666e-07 1.30288e-07 -2.39486e-08
1.18082e-07 1.9139e-06 5.40244e-07
-1.34283e-07 9.70908e-07 2.7159e-07
-1.52792e-06 2.44444e-06 -2.08422e-08
2.56651e-09 3.51726e-09 8.01606e-09
0.000154973 4.58124e-05 0.000107495
0.000164707 4.94793e-05 0.000109617
3.89623e-09 5.41209e-10 -8.40952e-09
3.50345e-09 -3.99225e-11 -4.16953e-09
3.53481e-07 1.72284e-07 3.14403e-08
4.67348e-09 3.69053e-09 8.86604e-09
2.77676e-07 1.93337e-06 3.73511e-07
-1.15425e-06 3.04666e-06 -2.79878e-07
-1.07045e-08 7.52174e-09 -1.85619e-09
-1.70086e-08 1.50478e-08 6.22692e-09
9.86123e-07 6.60313e-07 -4.34718e-08
8.57812e-07 1.35554e-06 2.48628e-07
-4.61335e-09 2.72351e-08 -2.16377e-08
-8.3069e-10 3.32751e-08 -2.81443e-08
1.69018e-08 3.73204e-08 -1.58338e-08
2.63408e-08 4.12899e-08 -1.81119e-08
6.09022e-07 1.40533e-06 4.19735e-07
4.67067e-07 1.26257e-06 4.23414e-07
-3.17828e-09 8.28526e-09 8.30351e-10
-2.40692e-09 7.54759e-09 1.75102e-09
1.00674e-08 1.25014e-08 1.53331e-08
7.03622e-08 4.63565e-08 -4.72591e-08
-3.90956e-09 3.1539e-09 -3.64786e-09
-4.33426e-09 3.06051e-09 -3.93083e-09
-2.08638e-06 2.89701e-06 -2.15728e-07
-1.86459e-06 3.88908e-06 -1.61983e-07
4.6372e-09 1.04467e-08 1.12436e-08
-6.63757e-09 1.41495e-08 2.50246e-08
-6.03453e-10 1.79092e-09 1.97593e-09
1.64978e-05 5.77883e-06 1.19329e-06
-1.45531e-09 3.2928e-09 3.06712e-09
-4.30519e-07 4.73284e-06 -7.40315e-08
2.88362e-07 3.46407e-06 -1.69366e-07
-2.35349e-07 7.55752e-06 6.31961e-07
-3.39332e-06 5.62838e-06 1.01925e-07
-1.99829e-06 4.01896e-06 4.04604e-09
-9.84628e-07 1.93857e-06 -2.07203e-07
6.58174e-10 5.24331e-09 6.48203e-09
2.77157e-10 2.17825e-09 -3.02727e-10
-4.51583e-10 1.56279e-09 -1.43035e-09
3.29479e-07 2.8078e-07 -1.53024e-07
6.97565e-07 1.36532e-06 -1.83565e-07
4.33671e-07 3.6002e-07 -1.85257e-07
-1.56329e-11 4.11903e-09 3.89708e-09
-1.44334e-09 2.10822e-09 1.40142e-09
-4.97243e-10 1.97536e-09 3.78572e-10
2.80676e-09 1.90414e-09 5.20624e-09
4.28278e-09 1.89682e-09 9.68928e-09
2.16408e-09 1.20037e-09 6.48382e-09
2.36265e-09 2.93105e-09 5.82702e-09
7.00712e-09 6.86458e-09 1.63636e-08
1.13931e-07 1.17033e-07 -2.39644e-08
8.58472e-09 6.34498e-09 1.69094e-08
2.93578e-07 4.03147e-06 -3.45293e-07
1.6987e-06 2.05373e-06 -1.74959e-07
1.58506e-06 2.45375e-06 -3.69834e-07
-3.35247e-09 8.26502e-08 7.56306e-08
-1.85879e-08 1.24093e-07 1.0993e-07
4.87441e-06 3.24009e-06 1.95622e-06
6.34356e-06 2.52461e-06 5.05603e-07
4.06739e-07 2.70362e-07 -2.91958e-07
9.4408e-07 4.31034e-07 -2.60786e-07
4.93864e-05 2.47969e-05 2.18667e-05
2.55312e-06 8.9185e-07 -5.43028e-08
2.2753e-06 1.33237e-07 -1.95196e-07
5.26574e-05 2.35439e-05 2.14401e-05
-9.7318e-07 4.01298e-07 -1.6643e-07
-1.04616e-06 4.4074e-07 -2.02449e-07
2.23567e-09 3.90872e-09 1.15337e-08
2.32695e-09 5.39298e-09 1.30476e-08
5.15795e-07 2.95543e-07 3.3346e-08
5.18032e-07 3.83807e-07 -5.54072e-08
1.89586e-08 2.47732e-08 -6.92941e-09
9.33505e-05 3.56271e-05 -4.76269e-05
8.46836e-05 3.32614e-05 -4.96066e-05
2.0323e-08 2.72742e-08 -3.95746e-09
8.55921e-09 2.52735e-09 -7.16527e-09
1.42578e-07 1.29363e-07 7.51379e-08
8.62039e-08 7.89336e-08 4.28106e-08
3.915e-07 1.98782e-07 -1.0287e-07
4.08083e-07 1.97909e-07 -2.69758e-08
1.65333e-08 4.47692e-08 -1.23379e-08
5.0801e-08 6.10682e-08 -2.47614e-08
4.08171e-07 1.42299e-06 -4.31833e-07
8.65477e-07 5.81282e-07 5.96531e-08
3.70383e-10 -4.65347e-11 -8.49737e-10
1.48573e-10 -7.85174e-11 1.64046e-10
3.50515e-05 1.18173e-05 1.5035e-05
3.61068e-05 8.7972e-06 8.29242e-06
-9.23941e-09 1.62509e-08 -3.40989e-08
-6.17113e-09 2.11139e-08 -4.16294e-08
3.35104e-06 1.32437e-05 3.00989e-06
4.09519e-08 4.87806e-08 -6.94107e-08
3.95163e-08 6.22205e-08 -8.0937e-08
2.05227e-08 5.84204e-08 6.80287e-08
2.74996e-08 8.31152e-08 9.25665e-08
1.6076e-06 5.48038e-07 -2.14234e-07
3.41285e-07 7.36395e-06 1.19628e-06
-1.97966e-06 4.0774e-06 6.77009e-07
5.12194e-07 9.76409e-08 -1.49435e-07
9.86276e-08 3.19787e-07 1.90623e-07
1.05164e-07 4.36693e-07 2.49622e-07
-1.57772e-08 3.2472e-08 -5.28635e-08
-1.47139e-08 1.98233e-08 -3.28026e-08
4.52038e-08 9.16105e-08 -6.53929e-08
1.27918e-08 5.83129e-08 -4.03643e-08
-6.30123e-05 2.7847e-05 -3.70877e-05
-5.8038e-05 2.97423e-05 -3.66001e-05
1.68478e-06 6.86436e-07 1.4512e-07
1.3712e-06 8.33604e-07 -3.67615e-08
-5.27227e-07 2.1729e-07 -1.06185e-07
-1.38764e-06 9.67073e-08 3.44009e-07
-4.96994e-07 3.93111e-07 -5.47145e-08
5.12594e-07 6.27131e-07 2.97477e-08
1.65545e-07 2.18496e-07 1.45468e-08
4.31269e-05 5.51045e-05 8.00873e-05
-6.59635e-06 3.40997e-06 1.87958e-06
5.81127e-05 4.92958e-05 7.54132e-05
-6.30394e-10 1.25431e-09 -1.7028e-09
-3.87839e-10 1.0292e-09 -1.27886e-09
-2.61958e-05 0.000112342 0.000225481
1.68385e-05 9.1339e-05 0.000168831
-2.42599e-11 5.31391e-10 3.11695e-10
-1.05857e-10 5.24469e-10 4.72725e-10
2.09961e-07 2.44579e-07 -2.73169e-09
1.93807e-07 2.78863e-07 -3.5816e-08
3.73541e-05 2.35977e-05 -2.59231e-05
3.08336e-05 2.74153e-05 -3.43462e-05
8.29015e-08 4.99637e-08 -2.89096e-08
-1.83895e-10 2.93439e-10 6.22669e-10
1.04433e-07 9.17037e-08 -9.09768e-08
2.0585e-08 6.55477e-08 -5.72236e-08
9.18052e-08 4.13405e-08 -5.26457e-08
9.73137e-09 2.33417e-08 1.23987e-08
2.82978e-07 1.47304e-07 3.10146e-08
3.00712e-07 1.55105e-07 -1.37125e-08
2.28474e-08 3.54921e-08 3.26092e-08
1.68804e-08 7.33733e-09 -1.54914e-08
1.20547e-06 3.73803e-06 -3.66127e-07
5.37992e-05 8.03087e-06 2.67253e-06
1.24384e-08 1.16388e-07 4.04806e-08
-5.78739e-09 1.53351e-07 4.85595e-08
4.06275e-05 7.10495e-06 -1.52134e-05
4.74432e-05 8.84912e-06 -1.8449e-05
2.62202e-08 3.55359e-08 -1.48515e-08
2.60917e-08 5.40506e-08 -1.46892e-08
-7.23478e-05 4.39097e-05 7.40169e-05
-4.90486e-05 4.96504e-05 7.71738e-05
0.000382575 8.1034e-05 0.000301792
0.000190638 0.000109357 0.000374993
-5.20232e-05 2.25632e-05 3.33911e-05
1.60326e-07 1.18099e-07 5.65323e-10
3.80504e-07 2.22187e-07 -4.57578e-08
2.24225e-08 3.37567e-08 -1.40015e-08
3.7355e-07 2.6574e-07 4.02778e-08
1.84024e-08 3.7885e-08 -4.30841e-09
1.78689e-08 3.21838e-08 3.92917e-09
2.11403e-07 -3.72563e-08 1.55614e-07
1.85165e-07 1.90903e-07 -1.57064e-07
1.60913e-07 2.32394e-07 -1.89858e-07
8.6503e-05 3.63381e-05 6.32898e-05
8.58808e-05 3.77842e-05 7.23564e-05
3.40165e-07 3.40587e-08 1.81895e-07
3.07498e-07 1.39308e-07 4.64184e-08
-6.1783e-08 3.06473e-08 5.82155e-09
-7.82881e-08 4.12875e-08 1.21607e-08
1.16836e-05 7.47469e-05 0.000105474
-1.22379e-05 6.68595e-05 8.89722e-05
2.97934e-07 2.27512e-07 1.16727e-07
4.07487e-07 1.84879e-07 1.29702e-07
7.18202e-08 1.06131e-07 4.01438e-08
1.23104e-07 1.81773e-07 7.20588e-08
2.57374e-08 2.14672e-08 -3.03692e-08
3.04362e-08 2.08953e-08 -3.0108e-08
-2.50697e-10 1.66793e-09 6.68759e-10
-4.14998e-10 2.05978e-09 8.94982e-10
2.1031e-08 1.55742e-08 -2.33175e-08
2.55079e-10 1.4884e-09 -2.78773e-09
1.30192e-10 2.15015e-09 -3.20429e-09
6.13618e-05 1.61439e-05 -1.1729e-05
4.40688e-07 3.21292e-07 1.0063e-07
4.23043e-07 3.04609e-07 5.64339e-08
5.05673e-05 1.0882e-05 -6.76292e-06
5.53883e-05 1.55041e-05 -1.35506e-05
8.94209e-10 2.7012e-09 -5.91063e-09
2.06385e-10 1.41409e-09 -3.02765e-09
2.89675e-08 8.02178e-08 6.37915e-08
6.49066e-08 7.9896e-08 6.66524e-08
1.3802e-06 8.61033e-07 5.73055e-07
1.65658e-06 8.57549e-07 4.93132e-07
2.94509e-10 7.81516e-10 3.95671e-10
1.83537e-10 9.12379e-10 5.67137e-10
1.4284e-07 1.04624e-07 -1.97224e-08
2.5764e-10 5.64854e-10 2.66461e-10
-1.1414e-09 8.09252e-10 -4.54156e-10
-7.3123e-10 3.78537e-10 7.91443e-10
1.18211e-07 8.70668e-08 -7.02845e-09
1.53275e-07 1.12064e-07 -8.42969e-09
-1.03746e-10 1.11441e-09 3.34381e-09
-5.98879e-10 1.20692e-09 2.94048e-09
-5.9289e-10 5.83099e-10 5.60885e-10
-2.5117e-06 3.62391e-07 4.86699e-07
7.72301e-09 5.70207e-10 -4.94413e-09
-2.59906e-06 4.58821e-07 1.01935e-07
6.60152e-07 1.69854e-06 2.86378e-07
5.56666e-07 1.09146e-06 1.78419e-07
3.94093e-08 9.75918e-08 5.2986e-08
1.1255e-06 3.67394e-07 -1.72612e-07
2.08279e-07 1.15529e-07 6.21596e-08
2.1285e-07 1.72673e-07 5.98263e-08
6.55631e-08 1.10908e-07 5.77856e-08
-1.6371e-08 7.97984e-08 7.64452e-08
-1.12549e-08 8.81378e-08 7.77147e-08
7.20998e-09 2.36208e-09 -8.86001e-09
2.11385e-08 2.60725e-08 -1.84553e-08
6.66527e-08 4.66673e-08 -4.10668e-08
2.55801e-06 1.05246e-05 1.76488e-06
1.22843e-09 9.44978e-10 4.20053e-09
6.06597e-10 1.03716e-09 3.52155e-09
6.98487e-07 5.77525e-07 -9.97826e-08
5.80679e-07 7.81352e-07 -1.04412e-08
1.18281e-06 7.60095e-07 -4.08528e-07
9.14329e-07 6.06259e-07 -2.9359e-07
6.20637e-07 5.51277e-07 1.76926e-07
1.02552e-07 8.41145e-08 -1.0869e-08
1.04143e-07 8.19048e-08 5.84451e-09
8.16605e-08 6.66784e-08 -4.81266e-08
-1.83144e-09 3.4955e-09 1.1484e-09
-1.72366e-09 4.21036e-09 1.9699e-10
-2.11729e-09 4.69782e-09 -3.9501e-11
1.69247e-08 9.10801e-09 -2.15395e-08
1.18644e-08 1.34087e-08 -2.3811e-08
2.2173e-08 2.61285e-08 -4.3728e-08
8.15491e-10 8.23106e-09 -1.0643e-08
5.39516e-08 6.87572e-08 -1.54406e-09
2.08001e-06 5.17188e-06 -3.83476e-07
2.92454e-09 5.45952e-09 1.68073e-08
8.23885e-10 5.17792e-09 1.65905e-08
7.88871e-07 1.01073e-07 2.17023e-07
2.92307e-06 9.97962e-07 -7.8088e-08
5.7368e-08 7.91146e-08 -3.70282e-08
7.03999e-08 6.88215e-08 -3.78135e-08
1.81229e-07 4.37424e-07 2.80389e-08
5.93477e-08 7.62493e-07 5.81587e-08
7.26913e-09 1.10987e-08 1.46286e-08
6.30268e-09 1.27086e-08 1.47204e-08
4.00822e-09 6.68928e-09 -1.09099e-08
3.09102e-09 3.15879e-09 -6.38871e-09
1.82308e-09 1.16586e-09 3.89111e-09
1.51706e-09 1.84684e-09 4.53244e-09
1.80372e-09 4.85738e-09 -8.09668e-09
9.04943e-06 4.06932e-06 9.93418e-07
2.36308e-05 2.46557e-05 -2.0852e-05
-2.32202e-11 6.0942e-08 7.61177e-08
-2.1551e-08 5.63051e-08 6.70707e-08
6.38254e-07 1.2456e-06 -2.13726e-07
6.11577e-07 1.4557e-06 -1.87185e-07
0.000323813 5.46589e-05 0.000188537
0.000312812 5.62189e-05 0.0001723
2.3183e-05 2.65692e-05 -2.32829e-05
8.79584e-06 7.22859e-06 3.74068e-06
-6.68354e-07 6.41205e-07 -1.4899e-07
-7.10168e-07 5.64727e-07 -1.42794e-07
5.5111e-06 3.94692e-06 1.49717e-06
3.10198e-05 3.28633e-05 3.30679e-05
2.52133e-05 2.2252e-05 2.19681e-05
3.12234e-10 -1.52676e-11 -6.11072e-10
-3.63635e-10 9.19981e-10 -2.3176e-09
-2.83981e-08 2.64575e-08 2.95639e-08
3.14351e-05 1.87178e-05 1.48885e-05
-1.74087e-07 5.54482e-08 -3.24673e-08
-1.32347e-07 5.96759e-08 1.08785e-08
-1.55053e-07 1.47949e-07 -1.17808e-07
-7.26549e-08 8.49552e-08 -7.4851e-08
-1.63635e-07 6.31342e-08 -7.25878e-09
5.4057e-07 4.70773e-06 -2.24793e-07
2.36961e-10 6.59091e-10 -1.64303e-09
1.32314e-10 8.15376e-10 -2.09056e-09
-3.18825e-10 6.72518e-09 3.10014e-09
2.34379e-09 6.95447e-09 5.19641e-09
-3.57823e-09 5.18512e-09 1.46811e-09
-6.53866e-09 8.67506e-09 1.36426e-09
-8.01401e-09 8.54021e-09 5.65725e-10
-1.46495e-09 7.38594e-09 -3.96949e-09
4.02632e-09 4.81491e-09 -7.29796e-09
8.39865e-08 9.01903e-08 4.6452e-09
9.13271e-08 6.40034e-08 -2.29554e-08
8.97859e-08 7.34513e-08 -4.24422e-09
-2.24695e-09 9.65863e-09 -1.14808e-09
6.21535e-07 3.32238e-07 -3.81266e-08
-4.07648e-06 3.84764e-06 2.44644e-06
-2.35565e-06 3.98821e-06 2.49309e-06
-1.10188e-06 1.67527e-07 1.79084e-07
-9.31367e-07 2.82183e-08 4.22607e-07
9.82471e-07 5.19345e-07 -8.4976e-08
8.79203e-07 2.45368e-07 2.03789e-07
-5.8047e-10 9.37216e-10 5.38844e-09
-5.83661e-07 -7.13858e-09 -4.94963e-07
-1.04845e-06 9.988e-08 -4.50038e-07
5.38268e-10 4.63983e-10 2.41854e-09
-2.01538e-09 1.97647e-09 3.11053e-09
-2.64263e-10 1.64107e-10 1.2101e-09
1.39784e-07 2.46533e-07 3.90255e-08
9.27297e-08 2.31595e-07 3.62479e-08
-5.61498e-10 1.20793e-09 2.81486e-09
1.35633e-07 9.82353e-08 -1.0822e-07
-1.65647e-08 2.33106e-07 1.08982e-07
-1.60135e-06 2.38405e-06 4.0256e-07
-1.56039e-06 2.17753e-06 3.05638e-07
-6.05271e-08 2.05897e-07 1.07098e-07
2.50495e-08 7.22259e-07 -6.59875e-08
7.85169e-08 7.52979e-07 -8.9531e-08
1.20554e-07 2.04121e-07 -8.09251e-09
-7.95565e-10 1.55872e-09 3.2373e-09
1.03342e-06 1.88991e-06 -6.99268e-07
1.24605e-06 1.15533e-06 -2.00374e-07
4.05223e-08 1.23182e-06 -5.42948e-07
-2.25888e-09 2.5009e-10 -2.22365e-09
3.96562e-05 3.7647e-05 5.38193e-05
3.18318e-05 3.68004e-05 4.86959e-05
-6.74923e-10 2.35198e-10 -3.20937e-09
1.05672e-08 1.9562e-08 1.41652e-08
7.66118e-05 4.16345e-05 -5.01679e-05
1.52078e-08 2.65574e-08 1.93836e-08
4.70588e-09 3.93495e-09 8.77156e-09
7.76261e-09 3.4249e-09 9.31244e-09
2.40195e-07 2.03529e-07 -1.3419e-07
6.25804e-09 4.1692e-09 8.67355e-09
1.95928e-06 5.96235e-06 -1.19527e-06
3.54199e-06 2.21261e-06 -7.01572e-08
3.93684e-09 8.37275e-09 1.23596e-08
-1.04953e-09 8.33163e-09 3.23088e-09
-3.01302e-09 2.3323e-09 4.12181e-09
-2.13275e-09 9.35818e-10 2.24281e-09
7.74992e-06 1.71215e-06 -1.06836e-06
9.8817e-06 2.50067e-06 -4.14892e-06
-1.90522e-06 1.53985e-06 1.02475e-07
-1.37918e-07 3.30704e-07 4.01343e-08
1.55194e-06 5.9231e-07 -1.63728e-07
-2.43848e-08 2.84345e-08 4.15599e-09
-1.38392e-08 3.07806e-08 9.35262e-10
-1.90432e-06 1.73157e-07 5.68384e-07
-2.27502e-06 7.35501e-07 -1.01884e-06
-1.02021e-06 2.76073e-07 -3.53166e-08
-1.21966e-06 1.69609e-07 -3.61495e-07
-7.08828e-09 2.43959e-08 -2.04347e-08
-3.64562e-07 3.30999e-07 8.39669e-09
2.37588e-07 9.99962e-08 -8.1976e-08
2.71819e-07 1.11139e-07 -9.08886e-08
-3.86427e-07 3.69122e-07 2.01277e-08
6.84659e-07 3.90791e-06 7.93113e-08
1.5191e-06 3.4332e-06 2.70671e-08
8.9605e-07 2.68735e-06 1.32489e-07
1.04739e-09 1.2832e-09 4.50285e-09
8.53545e-06 1.83925e-06 2.55589e-07
9.81108e-06 2.14614e-06 -2.16712e-06
-9.14096e-07 5.75673e-06 -9.81835e-07
7.92596e-10 2.65428e-10 1.85646e-09
1.67138e-06 3.20747e-06 6.72563e-08
1.67613e-06 1.12095e-05 6.41362e-06
5.09328e-06 5.15398e-06 2.07746e-06
1.30481e-05 1.11798e-05 5.17897e-06
7.06447e-08 1.42016e-07 3.55053e-08
5.75688e-08 2.0617e-07 2.89022e-08
-1.54623e-07 1.04902e-06 1.13602e-07
-8.98535e-09 5.97612e-07 6.71798e-08
3.47564e-07 1.53833e-07 6.36307e-08
1.68404e-07 2.13483e-07 5.15182e-08
1.43875e-06 4.93001e-07 -7.94115e-09
2.08008e-06 9.08816e-07 3.95331e-07
-2.80398e-09 5.97612e-10 3.75357e-09
-2.67021e-09 2.85391e-10 2.86143e-09
1.21996e-08 5.72838e-09 -1.92612e-08
8.08811e-09 4.14039e-09 -1.31246e-08
-1.0284e-09 2.22503e-08 3.47581e-08
2.24397e-09 1.57648e-08 3.0417e-08
-1.38057e-09 1.84228e-08 3.14498e-08
1.21007e-07 5.34525e-08 6.47252e-08
1.771e-07 1.07012e-07 -2.52547e-08
2.46152e-07 1.20049e-07 4.45482e-08
7.87258e-09 1.52432e-08 -1.81445e-08
4.36774e-09 1.17606e-08 -1.36903e-08
-1.45191e-08 3.11176e-07 -1.81543e-07
3.04272e-08 1.95351e-07 -1.17906e-07
-9.28697e-08 2.62902e-06 -4.88262e-07
-6.48417e-07 1.91545e-06 -3.61411e-07
2.60747e-10 8.92612e-09 -9.57214e-09
1.15348e-07 8.23161e-08 -4.43187e-08
-4.09515e-09 2.81455e-09 3.08473e-09
2.43599e-09 5.50302e-09 -8.67577e-09
-1.28606e-06 3.42689e-06 -1.44407e-07
-2.56414e-08 2.02542e-07 -1.50755e-07
-4.52474e-08 2.11492e-07 -1.50277e-07
3.76512e-05 3.36414e-05 3.0567e-05
1.24111e-06 6.02467e-07 7.54005e-07
0.000141138 1.26226e-05 -1.90786e-05
0.000175007 1.57359e-05 -5.92618e-05
0.000108477 1.75553e-05 -7.79837e-05
0.000149242 1.62446e-05 -4.92595e-05
1.28621e-06 5.95083e-07 8.82852e-07
3.56835e-05 2.85367e-05 2.50285e-05
2.98661e-05 2.98642e-05 2.47094e-05
3.69276e-09 4.2954e-09 -9.34352e-09
-2.51432e-09 8.23684e-10 -6.10987e-09
-1.4366e-09 5.5292e-10 -6.10127e-09
4.76658e-09 4.1793e-09 -9.75945e-09
2.74429e-09 2.65756e-09 -6.53335e-09
8.30439e-08 1.01113e-07 1.91257e-08
7.29189e-08 1.55147e-07 7.4467e-08
-5.38837e-07 9.64462e-08 1.3953e-07
-2.74176e-05 8.33933e-06 -7.27155e-06
-2.21767e-05 1.62895e-05 -1.85325e-05
-5.79849e-07 7.25306e-07 -2.01056e-07
6.73304e-08 9.07803e-08 -6.52833e-08
1.3973e-07 1.3874e-07 4.33072e-08
7.20327e-08 1.97505e-07 -1.04748e-07
7.81328e-08 1.11618e-07 -7.09097e-08
1.86451e-08 2.61025e-09 1.40327e-08
1.58792e-08 1.07534e-08 2.37046e-08
1.16494e-08 7.09825e-09 1.71663e-08
1.03946e-06 1.38382e-06 -9.61556e-08
1.17574e-06 1.69471e-06 -1.0003e-07
-5.86872e-05 2.63355e-05 -3.87855e-05
-6.70715e-08 1.29868e-07 9.09078e-10
3.59196e-09 7.90398e-09 1.56838e-08
-7.70087e-09 1.66119e-08 2.99498e-08
5.37004e-07 1.54663e-06 -1.68191e-07
5.91933e-07 1.1845e-06 -1.48948e-07
-4.19917e-08 6.18624e-08 -3.03445e-09
2.91093e-08 4.09109e-08 -4.99232e-09
-7.35279e-08 9.84904e-08 -1.00445e-08
-2.51934e-05 1.85725e-06 -8.48757e-07
-3.60218e-09 6.08231e-08 -3.05675e-08
-9.77689e-09 5.43467e-08 -2.86872e-08
-7.44654e-06 -1.34943e-06 -3.39258e-06
4.78176e-07 3.90606e-07 -1.04697e-07
-1.77505e-05 6.41619e-06 6.90163e-06
-1.16391e-09 1.1181e-08 -1.24572e-09
1.05454e-06 3.80496e-07 1.00726e-07
1.02453e-06 3.41194e-07 1.68837e-07
3.52388e-10 1.023e-08 -4.42318e-09
-2.82466e-10 9.32008e-09 4.24448e-09
3.00969e-08 4.56967e-08 -1.81255e-08
1.06598e-10 8.65581e-10 -2.26832e-09
3.9089e-10 1.2601e-09 -3.52344e-09
1.87134e-07 1.63025e-07 -2.0937e-08
1.90904e-07 1.47244e-07 1.20955e-08
1.85391e-06 1.58975e-06 6.94942e-07
4.37056e-05 4.99475e-05 6.38149e-05
4.31274e-05 5.05886e-05 5.889e-05
1.92606e-09 1.30068e-10 -1.71574e-09
-6.70605e-10 2.08345e-10 -3.7488e-09
1.97525e-05 3.20159e-05 3.60494e-05
1.35867e-07 5.13614e-08 5.00192e-08
9.75158e-08 6.91899e-08 1.26561e-08
-1.1084e-09 6.49052e-09 2.23677e-09
-2.54625e-08 7.90275e-08 7.06086e-08
-2.85394e-08 8.86553e-08 7.26407e-08
-3.48897e-07 2.55323e-06 2.18342e-07
-4.63029e-08 3.06325e-08 2.2748e-08
7.61938e-09 2.75635e-08 2.69444e-08
-7.85736e-05 4.461e-05 -6.85855e-05
-5.80898e-05 3.49576e-05 -4.98371e-05
-4.90876e-07 2.50418e-06 2.2143e-07
8.9779e-07 9.82239e-07 -1.85366e-07
-1.13255e-07 2.0255e-06 2.72694e-07
7.54688e-10 5.8245e-09 -2.73559e-09
2.41872e-07 5.88622e-07 -1.51137e-07
-2.10717e-05 3.76812e-05 -3.71637e-05
3.50012e-07 3.29723e-07 -1.46178e-08
5.683e-07 3.46915e-07 2.81778e-07
1.31938e-08 2.3009e-08 -1.16931e-08
-2.2483e-09 3.30037e-09 2.24075e-09
9.23743e-10 4.88551e-10 -2.01593e-09
-3.25578e-10 7.24053e-10 -4.07332e-09
-1.44708e-05 2.60156e-05 -2.54347e-05
-2.41712e-09 4.60048e-09 5.52818e-09
7.79754e-07 2.87892e-07 -1.25385e-07
-1.54059e-10 -7.35394e-11 7.43781e-11
2.13325e-08 3.29789e-08 3.76905e-08
2.47617e-09 1.34264e-09 4.26138e-09
2.65403e-05 2.77398e-05 -1.91607e-05
1.34907e-07 6.57199e-08 -6.45856e-08
9.63893e-06 3.1701e-05 -2.61276e-05
0.000824531 4.40503e-05 -0.000283306
0.000710499 5.76523e-05 -0.000302984
6.41832e-09 1.76321e-08 1.89108e-08
-0.000117342 8.30179e-05 -0.000207894
7.78391e-09 2.0489e-08 1.94928e-08
-3.67509e-08 3.42605e-08 1.11673e-09
-3.78784e-08 2.64596e-08 -5.92372e-09
1.22892e-08 2.95754e-08 2.70472e-08
5.64214e-07 7.01557e-07 -1.97958e-07
2.41521e-09 2.09316e-09 -4.82577e-09
1.57289e-07 1.07507e-07 -1.53921e-08
4.68062e-05 5.75271e-05 -6.12537e-05
1.47077e-07 8.35828e-08 2.54976e-08
1.65479e-07 7.62428e-08 5.86553e-08
1.48096e-07 7.61734e-08 4.56962e-08
3.40358e-05 5.73322e-05 8.18237e-05
-4.69131e-08 2.5421e-08 -7.59846e-09
-4.081e-08 2.25001e-08 -1.55113e-08
-1.18893e-07 6.79806e-08 -4.48342e-09
-1.97682e-07 1.51239e-07 -3.28165e-08
3.80842e-05 5.81732e-05 8.04094e-05
7.16774e-06 1.97382e-06 8.71811e-08
1.61126e-06 5.01171e-06 -2.73131e-06
1.5174e-06 4.09513e-06 -2.08692e-06
0.000472738 5.80238e-05 -0.000300314
0.000471164 5.40065e-05 -0.000235236