# vtk DataFile Version 2.0
S, Created by Mohamad Ibrahim Cheikh
ASCII
DATASET UNSTRUCTURED_GRID
POINTS 10490 double
-223.577 20.3395 -34.7912
-223.728 23.2866 -32.7657
-130.489 -29.2964 69.2897
-194.383 -37.8828 -41.0233
-207.467 29.5118 40.0417
-235.874 27.4013 13.4741
-191.273 -39.7114 -41.0834
14.3741 -3.09449 87.8016
-191.054 39.2339 -41.663
-193.392 36.9428 -42.4294
-251.146 3.21366 -3.38153
-251.007 5.46344 -0.715265
-204.325 29.3053 -42.1176
18.5649 -1.4511 87.7479
-201.227 30.3657 -43.1792
-151.271 68.7516 -14.6844
-148.463 69.9636 -12.2713
241.381 21.7609 -11.7084
240.378 24.345 -8.78204
39.0949 73.0152 -47.1769
42.9437 72.2884 -47.8812
45.3752 -3.17017 -86.4978
49.2411 -1.48946 -86.284
-145.562 -45.4909 -55.5021
-142.057 -46.9149 -55.4284
-191.797 -27.3615 49.9161
-189.472 -30.0402 49.4609
-64.3405 -67.8325 51.3412
-66.4841 -66.0135 53.3391
-121.224 -41.6759 -64.8689
-205.482 44.6113 24.1759
-208.426 41.8759 25.9199
-64.8734 -22.5402 81.9798
-61.247 -23.9021 81.9355
44.2795 4.23653 86.5217
-201.398 -44.917 27.5778
-50.6932 82.8936 -23.6226
-47.4272 82.6067 -25.3917
-109.54 -78.4117 -11.2494
-105.514 -79.2425 -10.0787
-195.486 42.6458 35.3087
-200.946 -43.0026 30.8401
-54.4224 -15.2773 84.5458
3.49116 8.33806 87.5956
226.254 36.0727 -13.2455
223.493 37.2795 -15.4579
-146.973 22.4375 -67.7932
-143.815 23.7125 -68.1874
-167.022 -43.0217 -49.777
-163.504 -43.4763 -50.8017
-215.265 -7.15563 -44.9385
-215.165 -3.15961 -45.4529
-105.617 -17.5765 77.9061
-104.079 -21.1143 77.2784
-247.96 -12.521 7.72454
-247.223 -12.2231 10.5723
-226.223 -18.8445 33.5155
-129.021 -40.8331 -63.5501
238.447 4.0758 -27.6838
236.191 2.11819 -30.1596
30.6375 -3.67985 -87.2671
26.6693 -1.93035 -87.4825
-224.96 -22.5383 32.2517
-47.6613 -75.8709 41.3461
-235.553 -26.7703 15.3058
-110.017 51.3122 -60.2429
-237.92 -25.2884 13.1994
-16.849 -1.38285 -87.7914
-20.0164 -3.94413 -87.6321
25.291 7.65118 -87.219
27.3075 3.80632 -87.3969
25.411 1.78869 -87.5314
45.9486 -6.28518 -86.2903
-242.159 -16.974 16.627
249.587 -5.36875 -9.4094
249.11 -2.30243 -11.8809
-169.134 48.1739 43.829
30.4749 -13.4524 -86.3095
-165.506 47.9479 45.7315
-244.371 -14.4425 14.9735
243.986 6.92819 20.1945
244.544 3.56461 20.2422
-218.53 -34.2524 26.9088
-142.145 -69.4108 21.27
-139.629 -70.7397 18.7868
-221.095 -32.056 27.0487
-157.97 -59.7993 33.3596
-205.033 32.4684 39.2809
-154.318 -61.3631 32.6036
21.3202 7.4601 87.3653
-119.027 18.5699 75.2637
-116.361 20.6642 75.2282
25.5775 -59.0287 64.6492
29.1115 -57.6558 65.6966
-134.451 55.1076 -49.9397
-136.718 52.6083 -51.8451
-177.084 57.925 23.4401
-176.67 59.4033 19.8472
-69.385 65.6581 -53.3254
-62.7126 16.9675 -83.5141
-66.3335 16.9304 -83.1784
-65.8699 67.2488 -51.869
124.441 57.7529 50.1267
121.007 58.36 50.4519
-132.441 -69.8468 26.7942
-132.815 -68.0007 30.9881
-188.845 35.1303 46.3002
-185.098 37.3035 46.4525
-232.725 13.1757 -30.6505
-58.8969 75.6781 39.9016
-60.2057 77.1869 36.6388
-231.927 16.8 -29.6013
-175.27 -46.9577 -42.1659
-178.781 -11.2227 60.8676
-181.794 -8.37288 60.2302
-195.807 53.7602 12.641
-198.358 52.0739 14.6687
-195.137 -6.40162 -55.1459
-196.108 -2.36102 -55.0451
-155.748 25.0982 64.3756
-159.438 22.5041 64.2286
-196.21 -54.5516 -7.39886
-193.182 -56.048 -5.79633
-90.6112 75.3789 -32.5087
-86.6014 75.7963 -32.8742
-39.2323 -78.9665 -36.3297
-42.733 -77.6533 -38.6057
-35.6822 20.7629 -84.5992
-119.247 -59.0747 -50.1322
-116.052 -58.3865 -51.8276
-103.565 -58.9087 54.4116
-107.458 -57.2156 55.2868
-176.03 46.9219 -41.8167
26.8955 14.1231 -86.348
23.7448 15.8538 -86.1605
-175.589 44.5895 -44.509
-89.4402 -39.5799 72.0975
-93.3085 -38.4362 72.116
-1.70837 -75.011 -46.0108
2.63069 -75.2477 -45.6173
-158.02 -33.1921 -59.8763
-154.736 -36.6294 -58.9145
24.8889 73.244 47.9946
27.4403 71.2561 50.7384
-166.529 38.835 53.2972
-168.947 36.4647 54.035
126.634 60.2666 46.3534
124.971 62.2383 44.2528
55.8996 20.2751 83.3688
-158.132 12.6657 67.2468
-155.541 9.86211 68.4455
-43.0725 74.1935 -44.8575
70.8303 53.1353 -65.6233
-40.2672 75.8233 -42.3828
222.064 -27.8281 -30.5326
225.276 -26.0123 -29.2253
-15.2992 80.458 -35.2399
-18.2752 79.2694 -37.6759
247.477 -7.06408 13.9945
245.671 -9.07238 16.5073
-182.885 19.8656 57.0477
-181.345 22.7097 56.5865
-54.7834 69.2538 50.7983
-52.4929 71.116 48.4681
-221.669 26.3886 -32.1209
245.288 -12.7014 14.713
-123.332 -44.6563 -62.3503
-128.466 -46.8979 -59.3637
-126.778 -44.2461 -61.7939
-219.064 -11.0508 41.7922
-206.358 49.8848 -6.479
-208.042 48.5228 -9.51683
-173.561 -35.1365 53.1171
-196.132 -34.8661 -42.6469
-56.7964 10.7131 85.0546
-98.8711 80.7713 4.814
-149.825 -21.4627 67.3429
-153.217 -21.7066 66.3229
-105.081 79.92 2.21532
-102.692 80.1541 5.31056
-208.259 -1.82356 -49.3017
-211.701 -0.42277 -47.5062
6.96411 77.2399 -42.0959
8.15715 75.4188 -45.2533
-12.5647 86.28 -16.7459
-16.6782 85.6205 -19.4697
11.9139 74.7903 -46.1848
-209.312 34.9121 -34.0773
-209.411 37.4911 -31.1361
-243.667 12.294 -17.992
-205.98 40.1029 -30.6805
-237.95 16.7335 23.0637
-240.122 13.5388 22.3945
-198.662 34.6912 41.335
-44.0826 -51.854 -69.4064
-47.9284 -52.1706 -68.8548
-63.4524 78.8093 -32.2515
-60.2535 79.7743 -30.5873
-198.891 37.6902 38.4759
-195.37 39.9903 38.3626
193.192 51.8485 -22.0509
191.206 51.6135 -24.5772
-16.9591 73.5581 -47.9374
-16.005 71.7478 -50.6448
-160.7 -8.66918 67.1352
-158.243 -5.13745 68.2045
-159.176 -12.1817 67.0343
-155.581 -13.9423 67.7211
-181.215 -39.3663 -46.6241
-187.066 -34.8928 -47.3519
234.201 -8.19795 31.0077
231.367 -8.83943 33.3482
-185.722 -37.8042 -45.7371
-220.423 -36.3319 -21.8076
-223.2 -33.1947 -23.2995
-73.6285 69.8934 46.8529
-199.235 43.3824 -31.6567
-202.398 40.5271 -32.9573
-78.4611 72.1572 42.2332
-74.5525 72.062 43.2503
-199.862 -47.1003 -25.2008
-196.405 -49.1626 -24.5823
-156.237 -38.5585 57.1728
-155.212 -34.6003 59.9783
-162.881 56.2796 -36.4485
-159.726 58.1063 -35.2725
245.94 -16.0777 8.95245
246.756 -13.0532 10.9097
-202.185 25.128 -45.9105
246.469 -16.6405 5.45945
-222.675 -40.7291 -3.81044
-219.564 -42.6763 -4.53555
-225.907 36.4584 -12.9114
-224.079 36.2188 -16.8752
-228.9 -34.8682 10.6504
-231.376 -33.5771 7.89218
-225.472 -37.7617 9.69439
119.537 74.8297 19.8773
-172.163 -51.1026 -38.7774
115.341 75.6457 19.8235
47.9243 12.1919 -85.5229
51.5102 10.7875 -85.4563
-180.219 -22.1696 57.2373
-179.917 52.3314 -32.2849
-165.443 0.851399 66.2735
-168.566 2.83035 65.247
-181.017 -17.4113 58.5589
36.4516 -59.7512 63.3334
37.7862 -57.2042 65.5506
-159.984 -59.9391 -31.9016
-182.766 -21.7968 -56.3854
-184.308 -18.0282 -57.0972
-11.9241 15.2277 -86.572
-188.59 -54.9976 19.1021
-192.466 -53.121 19.6706
-145.918 9.34941 -71.0618
-143.723 12.1586 -71.1844
-174.335 52.4417 35.6775
-173.406 50.7345 38.5817
-187.159 39.7363 -43.3182
-231.491 33.5017 -7.79803
-229.086 35.9753 -4.95807
-234.898 30.8754 -5.94488
241.404 7.72127 23.4446
239.892 10.8373 24.1019
240.609 13.4023 21.8297
-138.877 -61.8296 -39.4942
-138.123 -60.1616 -42.295
-141.494 -58.2483 -43.5891
-200.351 -41.1632 -33.6923
-218.713 20.1194 -38.5056
-52.6219 9.1523 85.5641
-56.6792 -81.1826 27.5693
-60.1938 -81.4604 25.7799
-152.587 56.174 41.6889
-153.32 58.0765 38.6413
-189.41 -9.89335 -57.0418
-186.062 -8.87695 -58.5386
64.9153 -8.69836 84.572
67.8935 -7.05606 84.4385
-196.835 -37.2181 40.1918
-200.414 -34.6085 40.3574
-180.668 -48.2451 -37.6853
-174.531 -52.0915 -36.0707
-215.618 -38.5089 23.8565
-218.655 -36.4146 23.7611
-178.254 -50.9814 -35.4223
-121.423 48.0166 -60.2772
-70.7978 59.9705 59.4464
26.871 -68.2965 54.6917
24.8063 -66.5844 56.8786
-87.179 -8.56016 -82.0989
-84.0008 -6.24774 -82.7108
-28.7766 86.1251 -15.0026
-32.7448 85.6849 -16.4565
-74.6415 60.4315 58.3947
-117.488 49.0781 -60.377
67.0755 -10.9541 -84.1022
63.3256 -11.5623 -84.3762
-122.234 44.8094 -62.5049
-75.6844 64.4484 -53.7504
-79.2488 64.5594 -52.9828
-210.937 -46.4387 -11.8316
-207.911 -47.2771 -14.7163
-70.3863 -66.9042 51.5876
-82.0274 62.0605 -55.3961
181.001 57.5739 -20.4516
187.79 54.7441 -20.7264
-57.9955 -57.7633 -63.2108
-60.2539 -59.9462 -60.8766
185.026 56.5074 -18.9619
-52.195 5.03111 85.9369
170.803 -60.9399 -21.4147
166.658 -61.8362 -22.7993
-242.161 -11.2301 20.9366
-241.443 -7.71398 23.3974
231.622 25.8612 -22.5152
229.371 25.1808 -25.8601
225.984 27.688 -26.9256
-235.385 -18.9684 -24.5117
-234.849 -16.6286 -26.7388
-226.062 27.1693 -27.3708
-222.945 28.4647 -29.1274
-220.764 31.38 -28.1503
-250.634 -7.29304 -0.178726
-176.029 45.3159 43.5525
58.5929 51.3307 -68.4751
59.6973 48.5037 -70.3923
128.088 68.3816 32.547
131.583 68.3036 30.9655
-176.905 47.6296 40.5454
-181.009 46.7594 39.3218
18.7047 -86.4178 15.2688
142.024 69.3639 -21.5201
141.079 68.3975 -25.0802
23.2384 -86.1703 15.8922
181.098 -44.0243 42.3152
25.6366 -86.6619 12.3796
-189.023 21.6535 -53.8585
-189.444 17.9071 -55.0403
-212.327 -45.0141 14.0798
-120.842 -46.9988 -61.215
-24.3216 -37.2682 79.2632
52.2887 18.5742 -84.0491
55.804 16.7854 -84.1486
-25.2935 -41.1177 77.2982
-119.139 -6.51515 -77.2254
-115.758 -7.72991 -77.7412
-200.043 16.4843 50.7241
-215.148 -43.2638 14.3207
-153.399 33.0936 61.3831
-156.819 31.396 61.2166
-157.699 28.2501 62.4598
-79.9682 -83.4308 0.602765
-62.4827 73.3835 -43.3691
-61.9277 71.3228 -46.771
-79.8044 -83.3553 -4.0213
-209.642 -18.6802 44.8807
-59.1226 71.9617 46.2338
-205.671 -19.6717 46.6707
-191.283 -46.388 33.3547
-190.153 -45.0073 35.9373
-195.125 47.3316 29.0231
-192.216 -42.6377 37.4513
-97.6321 19.9326 78.6109
-94.022 21.0731 78.8519
-195.846 -41.8711 35.985
-247.68 -8.81068 12.4837
188.064 -42.0215 40.5962
184.93 -44.2656 39.9696
-127.039 75.5362 7.89941
-123.37 76.0818 9.59872
48.82 1.73154 86.3088
130.443 15.6005 -73.6032
-179.66 46.5425 -40.3237
198.594 13.1819 52.3606
200.49 9.43556 52.2852
113.315 74.8998 23.7062
109.568 75.3591 24.3966
149.543 63.7476 -30.6972
145.71 65.357 -29.5477
-166.876 -45.668 -47.424
129.835 19.364 -72.8368
-209.794 43.7106 -21.0904
-206.933 46.1342 -19.313
126.46 20.2165 -73.3306
-61.878 -0.228512 85.2946
-59.1467 2.6799 85.4899
[...]
POINT_DATA 10490
VECTORS F double
1.3402e-08 3.06211e-08 7.35663e-09
1.24049e-07 8.79932e-08 -4.11656e-08
1.47629e-07 7.21657e-07 3.39163e-07
5.68341e-08 -7.55342e-09 -2.59957e-08
2.85938e-07 2.5297e-07 -5.06182e-09
1.79275e-07 1.91399e-07 -5.00386e-09
8.27748e-08 2.51408e-08 -7.14831e-08
-1.92491e-06 2.4131e-06 1.23628e-07
9.23113e-07 6.97299e-07 1.38381e-07
9.98656e-07 6.08275e-07 -2.76686e-08
1.19869e-08 7.25187e-08 -4.00961e-08
1.05032e-08 5.66027e-08 -1.89412e-08
1.01984e-07 3.45579e-07 1.79879e-07
-2.35378e-06 3.93949e-06 1.26117e-07
1.41243e-07 1.22728e-07 5.72096e-09
3.3446e-06 7.0389e-07 -9.2271e-07
4.28232e-06 8.05165e-07 -1.75247e-06
-1.10916e-08 2.11214e-08 1.12608e-08
-1.30413e-08 2.0489e-08 1.30942e-08
-2.94726e-05 7.34883e-06 8.38358e-06
-2.8979e-05 5.4115e-06 4.98801e-06
-3.18845e-06 1.9056e-06 -2.74616e-07
-2.90396e-06 1.42594e-06 -2.27511e-07
3.04326e-08 2.13801e-07 -1.85009e-07
5.66686e-08 2.40797e-07 -2.21593e-07
1.6864e-08 1.67841e-07 9.99361e-08
1.75505e-09 1.43388e-07 8.79106e-08
-4.59202e-08 1.9532e-07 2.51013e-07
-1.92256e-07 1.51524e-07 1.58191e-07
2.46783e-07 2.06675e-07 -1.89244e-07
5.54565e-07 2.51593e-07 1.12819e-07
3.71666e-07 2.75198e-07 -7.87048e-08
1.58652e-07 2.98041e-06 8.34832e-07
-2.35746e-07 1.68105e-06 4.68818e-07
-2.04026e-06 3.0446e-06 -2.12431e-08
1.52014e-08 2.87546e-08 6.0426e-08
7.98903e-05 1.37808e-05 2.73678e-05
8.61634e-05 1.59478e-05 3.21789e-05
3.97347e-08 3.2326e-10 -4.96191e-08
3.4398e-08 -2.8088e-09 -2.20042e-08
6.35019e-07 3.45464e-07 1.31869e-08
2.79622e-08 2.93088e-08 6.31734e-08
2.6696e-07 2.84798e-06 5.35665e-07
-1.61811e-06 3.79011e-06 -3.52878e-07
-2.2117e-08 1.32289e-08 -1.02278e-08
-3.7447e-08 3.38137e-08 1.52606e-08
1.2541e-06 8.58867e-07 -4.86113e-08
1.11844e-06 1.52284e-06 2.40771e-07
-5.07113e-08 1.01448e-07 -6.68482e-08
-4.412e-08 1.14001e-07 -8.01783e-08
5.22945e-08 1.4334e-07 -5.34936e-08
6.83736e-08 1.52163e-07 -5.02051e-08
9.69388e-07 2.31868e-06 6.84021e-07
1.06658e-06 2.25109e-06 7.90922e-07
-3.96471e-08 9.70526e-08 1.50364e-09
-2.78035e-08 7.32999e-08 5.15135e-09
5.98944e-08 9.6948e-08 1.04005e-07
1.75905e-07 3.4881e-08 -6.61362e-08
-1.84272e-08 1.2156e-08 -1.76417e-08
-1.74556e-08 7.39145e-09 -1.6218e-08
-2.48144e-06 3.0348e-06 -2.34627e-07
-2.27958e-06 3.91128e-06 -1.71383e-07
1.41055e-08 8.67758e-08 7.26876e-08
-3.93129e-08 5.74444e-08 9.98636e-08
-1.07732e-08 1.24009e-08 1.39156e-09
1.08161e-05 5.82813e-06 2.54582e-06
-2.06326e-08 3.6821e-08 2.50162e-08
-2.74761e-07 4.74775e-06 -6.83266e-08
2.47296e-07 3.79461e-06 -1.77702e-07
-8.78297e-07 6.60638e-06 5.48358e-07
-3.20431e-06 5.24987e-06 1.06068e-07
-2.19357e-06 4.09768e-06 5.77315e-09
-1.31235e-06 2.19084e-06 -2.4513e-07
5.87333e-09 4.47515e-08 5.61572e-08
2.55938e-09 1.26699e-08 1.08457e-09
-3.37793e-09 4.41196e-09 -9.52685e-09
3.95679e-07 3.75691e-07 -2.25991e-07
9.69395e-07 1.65356e-06 -2.15821e-07
5.45388e-07 5.51193e-07 -3.36252e-07
1.3459e-09 2.86953e-08 3.03709e-08
-9.82639e-09 1.05736e-08 1.09059e-08
-2.94916e-09 1.08735e-08 2.44835e-09
2.04224e-08 1.5536e-08 4.00826e-08
2.75023e-08 6.45954e-09 4.35806e-08
1.42691e-08 3.63867e-09 2.66854e-08
1.69152e-08 1.80567e-08 3.83272e-08
4.02238e-08 3.44467e-08 8.5068e-08
2.4158e-07 2.90961e-07 -8.61183e-08
4.1753e-08 2.94858e-08 7.96913e-08
-5.84108e-07 4.73417e-06 -3.86799e-07
2.20194e-06 2.71256e-06 -2.42932e-07
2.05449e-06 3.15451e-06 -4.77437e-07
-2.5341e-08 2.03411e-07 1.86954e-07
-6.95535e-08 2.98615e-07 2.65839e-07
4.60487e-06 2.74961e-06 1.51631e-06
5.37792e-06 2.36527e-06 6.63793e-07
4.52632e-07 3.33492e-07 -4.05466e-07
1.2617e-06 5.61617e-07 -3.05903e-07
2.34458e-05 1.72861e-05 1.75489e-05
1.89067e-06 2.11577e-06 2.56038e-07
1.65647e-06 8.68835e-07 1.51132e-08
2.27032e-05 1.92498e-05 2.14277e-05
-1.03468e-06 3.30148e-07 -6.5903e-08
-1.09667e-06 3.94772e-07 -1.34624e-07
4.20971e-09 1.3582e-08 3.79521e-08
2.62896e-10 1.88002e-08 4.13946e-08
1.00328e-06 5.35125e-07 9.49709e-08
9.99513e-07 6.47538e-07 -3.23931e-08
5.94369e-08 8.35461e-08 -1.93397e-08
4.30989e-05 1.95666e-05 -2.93217e-05
4.31644e-05 1.93337e-05 -3.20463e-05
3.42581e-08 8.6093e-08 1.59988e-08
4.37907e-08 -2.26613e-08 2.95151e-09
4.4993e-07 3.84164e-07 2.32628e-07
2.26548e-07 1.43935e-07 1.03727e-07
6.54993e-07 3.55997e-07 -2.71851e-07
7.8633e-07 3.75206e-07 -3.0154e-08
-5.98135e-09 1.15438e-07 -1.08099e-08
1.22089e-07 1.59362e-07 -6.00883e-08
4.08661e-07 2.31101e-06 -7.79949e-07
1.22798e-06 9.56203e-07 3.81738e-08
8.20393e-09 -2.0812e-09 -1.12881e-08
-1.16672e-09 -7.64192e-10 1.21505e-08
2.50052e-05 6.91551e-06 7.50213e-06
2.62134e-05 8.55588e-06 1.12724e-05
-4.34146e-08 5.00826e-08 -1.03119e-07
-2.91964e-08 6.48647e-08 -1.26515e-07
9.53797e-07 9.24511e-06 2.21974e-06
1.26485e-07 1.54465e-07 -2.18853e-07
1.23801e-07 1.79219e-07 -2.35839e-07
4.31879e-08 1.53217e-07 1.75944e-07
9.03494e-08 2.45059e-07 2.75109e-07
2.28423e-06 7.12428e-07 -3.77845e-07
-5.69579e-07 6.17905e-06 9.88931e-07
-2.19701e-06 3.74302e-06 6.14605e-07
7.45483e-07 1.28937e-07 -2.30895e-07
2.61955e-07 5.94127e-07 3.65947e-07
3.17587e-07 8.9924e-07 5.29582e-07
-6.30661e-08 8.28372e-08 -1.34763e-07
-6.17506e-08 6.03085e-08 -9.99169e-08
1.22922e-07 2.32056e-07 -1.68356e-07
2.70816e-08 1.4657e-07 -9.98372e-08
-3.05781e-05 1.59035e-05 -2.23286e-05
-3.13254e-05 1.51705e-05 -1.92309e-05
2.59893e-06 1.15631e-06 1.51646e-07
2.27117e-06 1.32065e-06 -2.18247e-08
-5.76846e-07 1.40528e-07 1.02236e-08
-1.36337e-06 2.42802e-08 4.37225e-07
-1.22509e-06 1.13288e-06 -1.74945e-07
9.5821e-07 1.0152e-06 8.46556e-08
2.73115e-07 2.76685e-07 3.61193e-08
4.47457e-05 2.86828e-05 4.21804e-05
-6.13074e-06 3.27702e-06 1.84328e-06
5.33567e-05 2.56314e-05 3.96482e-05
-2.45991e-09 7.75293e-09 -9.25643e-09
-1.61293e-09 6.05263e-09 -6.91049e-09
0.000115481 3.16336e-05 6.60855e-05
0.000102593 3.55732e-05 6.87525e-05
-7.71643e-10 -5.59769e-10 1.38641e-09
-1.30882e-09 6.13827e-10 2.72425e-09
3.84624e-07 5.49771e-07 -4.04842e-08
3.37868e-07 6.01327e-07 -1.08763e-07
3.74685e-05 2.79999e-05 -3.32253e-05
4.09704e-05 2.70073e-05 -3.41945e-05
1.941e-07 7.66737e-08 -1.01006e-07
-4.10551e-09 -1.75289e-09 6.86721e-09
2.38534e-07 1.88634e-07 -1.9287e-07
1.25468e-08 1.26193e-07 -1.03018e-07
2.21703e-07 3.57428e-08 -8.12815e-08
1.58735e-09 1.33628e-07 3.63538e-08
5.35701e-07 2.8613e-07 1.14101e-07
5.78651e-07 3.11879e-07 4.14563e-08
9.91679e-08 1.39783e-07 1.32137e-07
8.93197e-08 3.83733e-09 -5.34301e-08
2.3363e-06 3.75462e-06 -2.81911e-07
2.75518e-05 4.25268e-06 -2.07344e-06
-3.39623e-08 2.77457e-07 7.91774e-08
-6.69088e-08 3.75216e-07 1.03879e-07
2.41184e-05 4.00194e-06 -4.30885e-06
2.60058e-05 4.37864e-06 -4.51969e-06
4.68972e-08 9.22883e-08 -2.76675e-08
6.5411e-08 1.83815e-07 -3.7323e-08
3.95058e-05 3.71029e-05 6.88788e-05
1.27751e-06 3.20133e-05 5.33815e-05
0.000192324 8.30481e-06 2.51197e-05
0.000174994 9.72463e-06 2.4411e-05
2.19432e-06 2.94767e-05 4.78032e-05
2.9451e-07 2.19076e-07 2.96852e-09
8.37246e-07 4.55483e-07 -1.40964e-07
1.02866e-07 1.76839e-07 -4.97291e-08
7.55871e-07 5.75158e-07 1.30497e-07
6.88956e-08 2.02511e-07 -5.99041e-08
8.14381e-08 1.70563e-07 3.79394e-09
4.16527e-07 -1.68974e-07 3.86909e-07
4.28771e-07 3.16896e-07 -2.70096e-07
3.9466e-07 4.00163e-07 -3.36833e-07
5.29929e-05 1.66901e-05 2.8019e-05
5.69827e-05 1.56212e-05 2.69984e-05
6.86624e-07 -3.02936e-08 4.64221e-07
5.11692e-07 2.88666e-07 1.81292e-08
-7.50271e-08 3.54147e-08 2.79406e-09
-1.04889e-07 5.68432e-08 1.94695e-08
3.88713e-05 4.33821e-05 6.48846e-05
1.52774e-05 3.94178e-05 5.52516e-05
7.46609e-07 4.20998e-07 2.73165e-07
9.13582e-07 3.49474e-07 2.85831e-07
2.04719e-07 1.59393e-07 8.84803e-08
3.20914e-07 3.72042e-07 1.66859e-07
9.98626e-08 9.66363e-08 -1.29114e-07
1.13005e-07 7.51547e-08 -1.10037e-07
1.38273e-09 1.01188e-08 1.39604e-09
9.76279e-10 9.93752e-09 1.80555e-09
8.6252e-08 6.17911e-08 -9.39533e-08
3.50223e-09 2.42899e-09 -8.3803e-09
-1.16102e-09 4.51206e-09 -5.06729e-09
2.89025e-05 1.33459e-05 -1.4348e-05
7.66438e-07 6.06334e-07 2.40355e-07
7.93436e-07 5.72718e-07 1.07697e-07
2.50188e-05 9.51993e-06 -1.05746e-05
2.81261e-05 1.32345e-05 -1.6115e-05
4.00898e-09 1.34317e-08 -2.89982e-08
4.20113e-10 7.18259e-09 -1.47766e-08
7.12603e-08 2.68511e-07 2.04931e-07
2.06547e-07 2.49223e-07 2.09211e-07
1.5478e-06 1.07253e-06 8.09247e-07
1.92442e-06 9.65325e-07 5.23311e-07
1.83185e-09 6.85514e-09 6.14544e-09
5.44284e-10 7.33627e-09 7.26867e-09
3.21076e-07 2.2902e-07 -4.77673e-08
5.15856e-10 2.88019e-09 5.92055e-09
-2.79911e-08 1.96497e-08 -9.77889e-09
-2.12424e-08 9.75682e-09 3.40942e-08
3.02979e-07 2.31893e-07 5.77736e-09
3.90856e-07 3.04399e-07 1.79037e-08
1.27713e-08 -1.80017e-09 2.7711e-08
-1.95968e-09 1.14841e-08 4.18303e-08
2.09893e-09 -5.5163e-09 -1.55128e-08
-1.95826e-06 2.09782e-07 6.51999e-07
5.10692e-08 -2.0033e-08 -1.3582e-09
-2.03602e-06 2.66574e-07 4.33036e-07
5.64913e-07 1.49751e-06 2.5224e-07
4.89447e-07 1.01291e-06 1.63985e-07
1.14737e-07 3.17996e-07 1.67399e-07
1.49953e-06 5.15229e-07 -1.8796e-07
4.73626e-07 2.11359e-07 1.4204e-07
4.85279e-07 2.94722e-07 1.40709e-07
1.58963e-07 3.44441e-07 1.62573e-07
-3.968e-08 1.98299e-07 1.89879e-07
-1.90062e-08 2.09983e-07 1.84587e-07
4.18806e-08 1.106e-08 -4.64934e-08
6.86146e-08 6.31973e-08 -5.16601e-08
2.1893e-07 1.20375e-07 -1.2453e-07
5.59289e-07 8.60196e-06 1.50363e-06
7.51612e-09 9.73053e-09 3.70987e-08
2.44567e-09 8.42384e-09 2.56776e-08
1.04566e-06 7.35853e-07 -1.66064e-07
8.08612e-07 1.02876e-06 -2.41652e-08
1.69842e-06 1.064e-06 -5.4788e-07
1.25781e-06 8.45326e-07 -4.19461e-07
1.03715e-06 9.94547e-07 3.63685e-07
3.48048e-07 2.93945e-07 -2.13377e-09
3.2184e-07 2.61233e-07 7.48644e-08
2.74694e-07 2.16884e-07 -2.02448e-07
-1.16287e-08 1.92701e-08 8.31241e-09
-7.96517e-09 2.41075e-08 -1.13475e-09
-8.32379e-09 2.3614e-08 -3.26441e-09
7.25055e-08 2.81518e-08 -7.52875e-08
1.38428e-08 5.42588e-08 -8.27143e-08
7.2977e-08 1.10616e-07 -1.7682e-07
-1.07212e-08 6.43329e-08 -7.07933e-08
1.28101e-07 1.98771e-07 1.47751e-08
3.374e-06 5.7227e-06 -3.58078e-07
2.63251e-08 2.03933e-08 6.66765e-08
1.92589e-08 1.98561e-08 6.82469e-08
1.17681e-06 2.58563e-07 1.78944e-07
3.22408e-06 1.06861e-06 -3.9898e-08
1.38116e-07 2.43402e-07 -9.83651e-08
1.85404e-07 1.43341e-07 -9.38848e-08
1.20779e-07 5.85975e-07 4.89177e-08
-4.67447e-08 9.96823e-07 8.79005e-08
2.16957e-08 7.28361e-08 8.04565e-08
1.62397e-08 7.40017e-08 7.3334e-08
2.11841e-08 2.2577e-08 -4.13368e-08
1.87171e-08 3.60065e-09 -1.6287e-08
1.61889e-08 3.26104e-09 2.31782e-08
1.82936e-08 1.21214e-08 3.91863e-08
1.51246e-08 1.69759e-08 -3.37502e-08
6.82162e-06 3.79489e-06 1.34061e-06
2.48725e-05 1.78854e-05 -1.44164e-05
-4.50849e-09 2.26849e-07 2.83549e-07
-1.19385e-07 1.83837e-07 2.21581e-07
7.95492e-07 1.58638e-06 -2.68826e-07
6.83896e-07 1.90186e-06 -2.28697e-07
0.000142912 1.03538e-05 2.58759e-05
0.000129823 1.19112e-05 3.03914e-05
2.30129e-05 1.55811e-05 -1.25232e-05
6.87881e-06 4.90831e-06 2.35096e-06
-8.77896e-07 7.13843e-07 -1.78697e-07
-9.12216e-07 6.25339e-07 -1.69511e-07
4.53636e-06 3.7605e-06 1.60976e-06
2.17198e-05 1.56983e-05 1.50785e-05
1.9736e-05 1.27657e-05 1.19407e-05
1.36863e-09 -6.27304e-09 2.1632e-08
-2.08741e-08 1.51847e-08 -1.26782e-08
-1.38832e-07 6.7319e-08 6.41148e-08
1.85642e-05 1.27551e-05 1.09241e-05
-1.96903e-07 5.82074e-08 -4.9488e-08
-1.54731e-07 7.30929e-08 2.1421e-08
-4.48526e-07 2.79456e-07 -2.0499e-07
-2.75881e-07 1.59478e-07 -1.2361e-07
-1.92832e-07 7.36799e-08 -1.07957e-08
1.26196e-06 5.23442e-06 -2.12605e-07
9.50603e-09 5.36708e-09 -5.98932e-09
9.90355e-09 7.23509e-09 -1.07587e-08
-1.32362e-08 3.20942e-08 -1.52642e-09
7.9259e-09 2.24171e-08 1.74069e-08
-5.17985e-09 1.36333e-08 9.13694e-09
-1.4829e-08 2.75453e-08 1.07179e-08
-1.83107e-08 2.39234e-08 5.78473e-09
-3.14782e-08 5.46641e-08 -5.29541e-09
4.37083e-08 2.75504e-09 -4.87141e-08
2.66363e-07 3.12534e-07 4.08913e-08
2.70005e-07 1.53351e-07 -1.03161e-07
1.9897e-07 1.87661e-07 1.81505e-08
-2.25569e-08 9.52153e-08 -1.29864e-08
9.63159e-07 4.43863e-07 1.47726e-08
-4.17203e-06 3.91989e-06 2.5014e-06
-2.98398e-06 3.99948e-06 2.44603e-06
-1.02308e-06 5.05398e-08 3.86746e-07
-8.87697e-07 -5.20981e-08 5.76728e-07
1.48292e-06 6.97201e-07 -2.68712e-08
1.35662e-06 2.59489e-07 4.55999e-07
-1.50466e-08 1.00592e-08 5.91918e-08
-5.12681e-07 -2.01942e-08 -4.79315e-07
-8.86386e-07 6.28808e-08 -4.38941e-07
-4.54838e-09 8.60485e-10 5.48203e-09
-1.17396e-08 6.5885e-09 1.30051e-08
-1.10537e-08 -6.08923e-10 -1.45921e-09
1.6328e-07 4.88347e-07 1.26177e-07
1.31349e-07 4.75293e-07 9.92848e-08
-2.68376e-08 2.22283e-08 2.15139e-08
3.39543e-07 2.3757e-07 -2.64461e-07
-4.38627e-08 2.77285e-07 1.28727e-07
-1.44328e-06 2.13086e-06 3.60978e-07
-1.38035e-06 2.00857e-06 2.88589e-07
-1.45439e-07 2.54481e-07 1.29541e-07
-7.45164e-08 1.02441e-06 -7.23496e-08
-1.27588e-08 1.08888e-06 -1.05944e-07
3.17867e-07 5.80533e-07 -3.51849e-08
-2.58254e-08 2.68644e-08 3.3657e-08
1.59435e-06 2.48584e-06 -8.52393e-07
1.77583e-06 1.83539e-06 -3.84353e-07
-5.8131e-08 2.03178e-06 -9.36926e-07
-3.28354e-08 3.79071e-09 -8.73925e-09
3.31658e-05 2.10392e-05 2.97496e-05
2.66575e-05 2.05045e-05 2.69466e-05
8.31975e-09 -4.28493e-10 -1.13213e-08
4.76311e-09 7.77308e-08 3.50777e-08
3.90406e-05 2.21194e-05 -2.83159e-05
1.68983e-08 1.34174e-07 6.56723e-08
2.54531e-08 2.80978e-08 5.69485e-08
4.19405e-08 2.38807e-08 5.70768e-08
3.62714e-07 3.64677e-07 -2.9617e-07
2.7542e-08 2.41949e-08 4.48512e-08
2.86682e-06 5.65217e-06 -9.97251e-07
3.58004e-06 4.30608e-06 -6.28164e-07
1.41215e-08 6.705e-08 8.74277e-08
-1.23391e-08 7.20981e-08 2.09187e-08
-2.61832e-08 1.38787e-08 2.92157e-08
-1.37376e-08 3.15123e-10 8.13039e-09
6.9728e-06 1.4772e-06 -3.96272e-07
8.77382e-06 2.16743e-06 -3.37321e-06
-2.45135e-06 2.08747e-06 1.27881e-07
-1.74207e-07 3.88798e-07 4.4609e-08
2.27336e-06 9.07811e-07 -1.92267e-07
-5.93885e-08 7.86556e-08 7.77512e-09
-2.45397e-08 9.2273e-08 -5.13181e-09
-1.86823e-06 1.47993e-07 6.25671e-07
-2.11093e-06 4.88115e-07 -3.471e-07
-9.30333e-07 2.19804e-07 -9.84094e-08
-1.09381e-06 1.28657e-07 -3.75791e-07
-7.26844e-08 9.70838e-08 -6.21756e-08
-4.50887e-07 3.77404e-07 1.9348e-09
4.82281e-07 1.62493e-07 -2.5058e-07
4.8243e-07 1.80459e-07 -2.01785e-07
-4.73002e-07 3.90104e-07 7.68309e-09
6.8213e-07 4.80265e-06 7.34538e-08
1.68858e-06 4.14779e-06 1.30082e-08
1.14076e-06 3.76615e-06 1.71288e-07
1.36664e-08 1.55151e-08 5.60248e-08
7.12931e-06 1.53194e-06 2.10131e-07
7.91082e-06 1.68972e-06 -1.05801e-06
-1.41177e-06 6.4577e-06 -1.12974e-06
1.31351e-08 -2.17165e-09 1.55761e-08
1.91319e-06 4.27453e-06 5.73628e-08
3.78661e-06 7.35261e-06 3.81932e-06
4.58508e-06 5.73312e-06 2.51172e-06
8.22986e-06 7.14901e-06 3.37813e-06
1.13538e-07 4.14997e-07 7.16693e-08
8.34307e-08 5.31808e-07 5.29357e-08
-3.30258e-07 1.51183e-06 1.74503e-07
-9.36079e-08 8.55386e-07 1.0425e-07
6.61588e-07 2.88885e-07 1.42875e-07
3.58217e-07 5.23084e-07 1.0828e-07
1.86877e-06 6.33345e-07 -2.51078e-08
2.42353e-06 9.95208e-07 3.34572e-07
-3.83874e-08 9.61336e-10 2.96743e-08
-3.28086e-08 -2.58565e-09 1.52725e-08
7.46903e-08 1.79419e-08 -7.9643e-08
5.89878e-08 7.97292e-09 -4.83397e-08
-2.22139e-08 7.36741e-08 1.10961e-07
1.57112e-08 6.02448e-08 1.18033e-07
-1.54086e-08 6.2225e-08 1.03674e-07
2.63062e-07 1.00444e-07 2.00481e-07
3.91124e-07 2.37331e-07 -5.86032e-08
5.49062e-07 2.58402e-07 1.38627e-07
2.30855e-08 7.37341e-08 -8.04588e-08
1.24416e-08 7.52359e-08 -7.67838e-08
-3.55459e-08 5.65596e-07 -3.28243e-07
3.67979e-08 3.31801e-07 -1.97812e-07
-6.31408e-07 3.18788e-06 -5.67761e-07
-1.19826e-06 2.42023e-06 -4.40015e-07
-1.42377e-08 6.20812e-08 -5.49418e-08
2.02327e-07 -5.70378e-10 -4.0874e-08
-2.11246e-08 5.10933e-09 1.20909e-08
1.31891e-08 3.25523e-08 -5.03825e-08
-1.38192e-06 3.91263e-06 -1.70081e-07
-7.6289e-08 3.69447e-07 -2.74364e-07
-1.38078e-07 3.21198e-07 -2.26543e-07
1.92968e-05 2.59804e-05 2.56723e-05
1.61364e-06 8.25911e-07 1.17957e-06
7.56458e-05 6.56492e-06 6.89008e-06
8.44896e-05 6.78881e-06 -3.4264e-06
7.00288e-05 6.92688e-06 -1.1038e-05
8.18806e-05 6.57697e-06 -6.47796e-07
1.82071e-06 8.11282e-07 1.08501e-06
1.85463e-05 2.19992e-05 2.1009e-05
1.70854e-05 2.20469e-05 1.94197e-05
4.49504e-08 2.85579e-08 -7.99061e-08
-2.52121e-08 5.62536e-09 -2.76955e-08
-1.23006e-08 4.64766e-09 -5.08983e-08
5.05015e-08 1.78109e-08 -6.61374e-08
2.27416e-08 8.12256e-09 -3.22029e-08
1.36229e-07 2.39348e-07 8.47764e-08
1.01659e-07 3.52705e-07 2.10045e-07
-6.24783e-07 8.22472e-08 2.30019e-07
-1.84764e-05 7.95839e-06 -7.87771e-06
-1.97874e-05 7.7242e-06 -8.01832e-06
-8.35209e-07 8.02107e-07 -2.22468e-07
2.07993e-07 2.00216e-07 -1.6238e-07
3.60134e-07 3.78642e-07 1.0902e-07
1.84869e-07 5.05059e-07 -2.67951e-07
1.74132e-07 2.13049e-07 -1.43039e-07
1.27066e-07 4.60751e-09 7.56932e-08
1.04144e-07 5.50859e-08 1.3304e-07
6.57067e-08 3.30953e-08 8.59907e-08
1.12616e-06 1.52197e-06 -1.02949e-07
1.25042e-06 1.71518e-06 -1.05857e-07
-3.31878e-05 1.63478e-05 -2.53292e-05
-1.00366e-07 2.10317e-07 4.15348e-09
3.47968e-08 6.85034e-09 2.29686e-08
-2.93404e-08 6.96836e-08 1.26609e-07
5.98163e-07 1.82181e-06 -1.93045e-07
6.29509e-07 1.33574e-06 -1.6348e-07
-5.69223e-08 9.42165e-08 -2.17887e-09
1.1476e-07 1.82991e-07 4.60433e-09
-1.12269e-07 1.68197e-07 -1.27004e-08
-1.73632e-05 1.42205e-06 -3.29254e-07
2.67022e-09 1.12111e-07 -5.41952e-08
-4.06256e-09 9.56068e-08 -4.75485e-08
-1.11256e-05 2.27038e-07 -1.49129e-06
7.74421e-07 7.06323e-07 -2.41164e-07
-1.46583e-05 2.9519e-06 2.2213e-06
-1.10715e-08 1.0095e-07 2.43082e-09
1.55795e-06 5.87135e-07 1.11164e-07
1.73446e-06 4.61837e-07 4.41829e-07
2.37179e-09 6.62535e-08 -3.40392e-08
-8.977e-09 7.86559e-08 2.40663e-08
1.12128e-07 1.99903e-07 -1.18809e-07
1.78109e-08 -1.06794e-08 -1.71697e-08
1.75746e-08 1.71416e-10 -3.60285e-08
4.38342e-07 4.51169e-07 -1.1701e-07
5.42654e-07 3.80173e-07 6.78479e-08
2.5466e-06 1.98136e-06 7.74552e-07
2.97804e-05 2.29222e-05 2.93542e-05
2.31606e-05 2.27394e-05 2.72005e-05
1.77787e-08 8.093e-10 2.91953e-09
-1.5633e-08 2.09596e-10 -1.56861e-08
2.36161e-05 2.25231e-05 2.51302e-05
3.53331e-07 9.48058e-08 1.51919e-07
1.81943e-07 1.40782e-07 1.60954e-08
-2.13347e-08 5.51486e-08 -1.19673e-09
-1.06317e-07 2.07265e-07 1.86174e-07
-9.4363e-08 2.27699e-07 1.87039e-07
-4.02731e-07 3.43983e-06 2.94114e-07
-1.01674e-07 4.2739e-08 4.03254e-08
-2.44449e-08 1.23266e-07 9.72907e-08
-1.59476e-05 2.87711e-05 -4.8622e-05
-1.27408e-05 2.81882e-05 -4.33565e-05
-5.55079e-07 3.42702e-06 3.07002e-07
1.06511e-06 1.17405e-06 -2.24351e-07
-1.78398e-07 2.94384e-06 3.91783e-07
-2.6077e-09 -3.80371e-09 -2.21354e-08
3.92095e-07 7.83074e-07 -1.83211e-07
7.67906e-06 3.21181e-05 -3.1588e-05
4.33942e-07 5.92246e-07 -7.70523e-08
8.85858e-07 5.92315e-07 5.91827e-07
5.82914e-08 1.02869e-07 -5.15825e-08
-3.22687e-08 4.67002e-08 3.02711e-08
9.1038e-09 2.2247e-09 -3.72081e-09
-4.24989e-09 3.33457e-09 -2.14167e-08
-2.05819e-05 1.8575e-05 -1.82596e-05
-2.98584e-08 6.17288e-08 9.6723e-08
1.22378e-06 4.68042e-07 -1.44048e-07
-5.55611e-09 -2.72954e-09 2.03226e-09
6.95891e-08 1.33513e-07 1.46317e-07
2.25711e-08 7.77682e-10 2.28523e-08
1.30608e-05 2.28631e-05 -1.69784e-05
2.54678e-07 8.9471e-08 -1.03548e-07
1.32108e-05 2.33455e-05 -1.93268e-05
0.000285383 3.07678e-07 -3.35895e-05
0.000263698 3.12588e-06 -4.04754e-05
1.62116e-08 9.89282e-08 9.50585e-08
0.000167912 2.49522e-05 -7.25245e-05
1.42917e-08 1.11504e-07 9.1357e-08
-5.23697e-08 6.64068e-08 1.19432e-08
-6.06141e-08 4.84734e-08 -6.21193e-09
4.37974e-08 1.53509e-07 1.2981e-07
9.98039e-07 1.03333e-06 -3.27296e-07
1.4505e-08 1.23959e-10 -9.1763e-09
3.38759e-07 2.60295e-07 -8.40068e-08
3.33809e-05 3.14628e-05 -3.44087e-05
3.40411e-07 1.84333e-07 7.49561e-08
3.44705e-07 1.48903e-07 1.34468e-07
3.49958e-07 1.76065e-07 1.14113e-07
3.15956e-05 2.299e-05 3.21054e-05
-8.86733e-08 4.76233e-08 -1.75086e-08
-7.78058e-08 4.09063e-08 -4.5336e-08
-1.70075e-07 9.95744e-08 -8.17018e-09
-2.98804e-07 2.49715e-07 -6.46427e-08
3.53609e-05 2.64851e-05 3.65612e-05
7.21091e-06 3.85879e-06 -1.19145e-06
3.20184e-06 4.29071e-06 -1.97165e-06
3.55237e-06 4.37872e-06 -1.86253e-06
0.000186191 6.58181e-06 -2.32286e-05
0.000174131 7.41588e-06 -2.12463e-05