# vtk DataFile Version 2.0
S, Created by Mohamad Ibrahim Cheikh
ASCII
DATASET UNSTRUCTURED_GRID
POINTS 10490 double
-223.577 20.3395 -34.7912
-223.728 23.2867 -32.7658
-130.489 -29.2957 69.29
-194.383 -37.8828 -41.0233
-207.467 29.512 40.0417
-235.874 27.4015 13.4741
-191.273 -39.7114 -41.0835
14.3722 -3.09207 87.8018
-191.053 39.2346 -41.6629
-193.391 36.9434 -42.4294
-251.146 3.21373 -3.38157
-251.006 5.46349 -0.715284
-204.325 29.3057 -42.1175
18.5626 -1.44716 87.748
-201.227 30.3658 -43.1792
-151.268 68.7523 -14.6853
-148.458 69.9644 -12.273
241.381 21.7609 -11.7084
240.378 24.345 -8.78202
39.0656 73.0226 -47.1685
42.9148 72.2938 -47.8762
45.372 -3.16825 -86.4981
49.2382 -1.48803 -86.2842
-145.562 -45.4907 -55.5022
-142.057 -46.9147 -55.4286
-191.797 -27.3613 49.9162
-189.472 -30.04 49.461
-64.3405 -67.8323 51.3415
-66.4842 -66.0134 53.3392
-121.224 -41.6756 -64.8691
-205.481 44.6116 24.176
-208.426 41.8762 25.9198
-64.8733 -22.5372 81.9806
-61.2473 -23.9004 81.936
44.2774 4.23957 86.5217
-201.398 -44.917 27.5779
-50.6138 82.9072 -23.5956
-47.3417 82.6225 -25.36
-109.54 -78.4117 -11.2495
-105.514 -79.2425 -10.0787
-195.485 42.6462 35.3087
-200.946 -43.0025 30.8401
-54.4222 -15.2744 84.5463
3.48954 8.34185 87.5952
226.254 36.0727 -13.2455
223.493 37.2795 -15.4579
-146.972 22.4384 -67.7932
-143.814 23.714 -68.1872
-167.022 -43.0216 -49.7771
-163.504 -43.4762 -50.8017
-215.265 -7.15548 -44.9385
-215.165 -3.15946 -45.4529
-105.616 -17.5742 77.9068
-104.078 -21.1121 77.2792
-247.96 -12.5209 7.72454
-247.223 -12.223 10.5723
-226.223 -18.8444 33.5156
-129.021 -40.8331 -63.5501
238.447 4.07581 -27.6838
236.191 2.1182 -30.1596
30.635 -3.67681 -87.2673
26.667 -1.92643 -87.4827
-224.96 -22.5383 32.2518
-47.6613 -75.8708 41.3462
-235.553 -26.7703 15.3058
-110.006 51.318 -60.2403
-237.92 -25.2884 13.1994
-16.8493 -1.3781 -87.7915
-20.0162 -3.94033 -87.6323
25.2901 7.65779 -87.2184
27.3042 3.81158 -87.3968
25.4088 1.7928 -87.5314
45.9473 -6.28298 -86.2905
-242.159 -16.974 16.6271
249.587 -5.36874 -9.4094
249.11 -2.30243 -11.8809
-169.134 48.1742 43.8288
30.4759 -13.4508 -86.3097
-165.505 47.9484 45.7312
-244.371 -14.4425 14.9735
243.986 6.9282 20.1945
244.544 3.56462 20.2423
-218.53 -34.2524 26.9089
-142.145 -69.4108 21.27
-139.629 -70.7397 18.7869
-221.095 -32.056 27.0488
-157.97 -59.7992 33.3597
-205.033 32.4687 39.2808
-154.318 -61.3631 32.6037
21.3196 7.46483 87.3649
-119.025 18.5726 75.2635
-116.359 20.6674 75.2277
25.5775 -59.0285 64.6494
29.1114 -57.6555 65.6969
-134.446 55.1104 -49.9382
-136.713 52.6106 -51.8444
-177.083 57.9253 23.4397
-176.669 59.4038 19.8469
-69.3617 65.6753 -53.308
-62.7107 16.9696 -83.5138
-66.3318 16.9313 -83.1784
-65.8473 67.2679 -51.8477
124.44 57.7533 50.1266
121.006 58.3604 50.4517
-132.441 -69.8468 26.7942
-132.815 -68.0007 30.9881
-188.844 35.1309 46.3003
-185.097 37.3041 46.4525
-232.725 13.1758 -30.6505
-58.854 75.6975 39.8725
-60.1628 77.2061 36.607
-231.926 16.8 -29.6013
-175.27 -46.9577 -42.1658
-178.78 -11.2224 60.8678
-181.794 -8.37274 60.2303
-195.807 53.7606 12.6407
-198.357 52.0742 14.6687
-195.137 -6.4015 -55.1459
-196.108 -2.36086 -55.0452
-155.748 25.1005 64.3748
-159.437 22.505 64.2286
-196.21 -54.5516 -7.39887
-193.182 -56.048 -5.79632
-90.5863 75.3858 -32.5012
-86.5752 75.8049 -32.8629
-39.2323 -78.9664 -36.3299
-42.7331 -77.6532 -38.6058
-35.6813 20.7721 -84.597
-119.247 -59.0745 -50.1324
-116.052 -58.3864 -51.8279
-103.565 -58.9085 54.4118
-107.458 -57.2154 55.2871
-176.028 46.9226 -41.817
26.8949 14.1293 -86.347
23.7426 15.8576 -86.1599
-175.589 44.5896 -44.5092
-89.4399 -39.5793 72.0979
-93.3082 -38.4353 72.1166
-1.70843 -75.0109 -46.0109
2.63062 -75.2476 -45.6174
-158.019 -33.1918 -59.8765
-154.736 -36.6292 -58.9146
24.8594 73.2597 47.9724
27.4097 71.2709 50.7195
-166.527 38.8362 53.2974
-168.945 36.466 54.035
126.633 60.2667 46.3534
124.97 62.2383 44.2532
55.8984 20.2762 83.3686
-158.131 12.6667 67.2469
-155.54 9.86239 68.4456
-43.0277 74.2219 -44.8157
70.8241 53.1386 -65.6214
-40.2138 75.8487 -42.3437
222.064 -27.8281 -30.5326
225.276 -26.0123 -29.2253
-15.1833 80.4892 -35.1748
-18.1723 79.3045 -37.608
247.477 -7.06408 13.9945
245.671 -9.07238 16.5073
-182.885 19.8661 57.0476
-181.344 22.7103 56.5864
-54.7461 69.2817 50.7652
-52.4521 71.1428 48.4341
-221.669 26.3887 -32.121
245.288 -12.7014 14.713
-123.332 -44.6561 -62.3505
-128.466 -46.8978 -59.3638
-126.778 -44.2461 -61.794
-219.064 -11.0506 41.7922
-206.357 49.8851 -6.47888
-208.041 48.5231 -9.51679
-173.56 -35.1363 53.1172
-196.131 -34.8661 -42.6469
-56.794 10.7169 85.0543
-98.8437 80.7756 4.81193
-149.826 -21.4625 67.343
-153.217 -21.7062 66.323
-105.058 79.9239 2.21106
-102.666 80.1585 5.30609
-208.259 -1.82347 -49.3017
-211.701 -0.422586 -47.5062
7.00558 77.2773 -42.0264
8.15952 75.4511 -45.1993
-12.3732 86.2882 -16.7214
-16.504 85.6301 -19.4458
11.9172 74.8201 -46.1364
-209.312 34.9123 -34.0773
-209.411 37.4916 -31.1363
-243.667 12.2941 -17.992
-205.979 40.1035 -30.6804
-237.95 16.7337 23.0637
-240.122 13.539 22.3945
-198.662 34.6911 41.3354
-44.0822 -51.8537 -69.4067
-47.928 -52.1702 -68.8552
-63.3997 78.8259 -32.2238
-60.1968 79.7897 -30.5606
-198.89 37.6901 38.4764
-195.369 39.9906 38.3626
193.192 51.8486 -22.0509
191.206 51.6136 -24.5772
-16.9193 73.6014 -47.8726
-15.989 71.7872 -50.5895
-160.699 -8.66876 67.1355
-158.242 -5.13711 68.2048
-159.175 -12.1816 67.0344
-155.58 -13.942 67.7212
-181.215 -39.3663 -46.6242
-187.066 -34.8927 -47.352
234.201 -8.19794 31.0077
231.367 -8.83942 33.3482
-185.722 -37.8041 -45.7372
-220.423 -36.3319 -21.8076
-223.2 -33.1947 -23.2995
-73.5998 69.9067 46.8386
-199.234 43.383 -31.6565
-202.398 40.5277 -32.9572
-78.4362 72.1666 42.2227
-74.5245 72.0752 43.2342
-199.862 -47.1003 -25.2009
-196.405 -49.1626 -24.5823
-156.237 -38.5582 57.173
-155.211 -34.6001 59.9785
-162.88 56.2807 -36.4477
-159.725 58.1072 -35.272
245.94 -16.0776 8.95246
246.756 -13.0532 10.9097
-202.185 25.1282 -45.9106
246.469 -16.6405 5.45946
-222.675 -40.7291 -3.81045
-219.564 -42.6763 -4.53551
-225.906 36.4586 -12.9114
-224.079 36.2191 -16.8752
-228.9 -34.8682 10.6504
-231.376 -33.5771 7.89222
-225.472 -37.7617 9.69438
119.535 74.8299 19.8779
-172.163 -51.1026 -38.7774
115.339 75.646 19.8239
47.9249 12.1934 -85.5227
51.5107 10.7885 -85.4562
-180.219 -22.1693 57.2374
-179.916 52.3319 -32.2851
-165.443 0.85161 66.2736
-168.566 2.83064 65.2472
-181.017 -17.4109 58.559
36.4515 -59.751 63.3336
37.7862 -57.204 65.5508
-159.984 -59.9391 -31.9017
-182.766 -21.7968 -56.3854
-184.308 -18.0281 -57.0973
-11.9236 15.2363 -86.5705
-188.59 -54.9976 19.1022
-192.466 -53.121 19.6706
-145.917 9.35015 -71.062
-143.722 12.1596 -71.1844
-174.333 52.4427 35.6769
-173.405 50.7354 38.5813
-187.158 39.7373 -43.3178
-231.491 33.502 -7.79804
-229.086 35.9755 -4.958
-234.898 30.8756 -5.94509
241.404 7.72129 23.4446
239.892 10.8373 24.1019
240.609 13.4023 21.8297
-138.877 -61.8295 -39.4943
-138.123 -60.1616 -42.295
-141.494 -58.2482 -43.5893
-200.351 -41.1632 -33.6924
-218.713 20.1196 -38.5056
-52.6186 9.15801 85.5638
-56.6792 -81.1826 27.5694
-60.1937 -81.4604 25.78
-152.586 56.1743 41.6891
-153.317 58.0776 38.6413
-189.41 -9.89311 -57.0419
-186.062 -8.87681 -58.5387
64.9154 -8.69777 84.572
67.8935 -7.05506 84.4386
-196.835 -37.2181 40.1919
-200.414 -34.6084 40.3575
-180.668 -48.2451 -37.6853
-174.531 -52.0915 -36.0707
-215.618 -38.5088 23.8565
-218.655 -36.4146 23.7611
-178.254 -50.9814 -35.4223
-121.416 48.0204 -60.2759
-70.773 59.9883 59.4321
26.871 -68.2963 54.692
24.8061 -66.5842 56.8789
-87.1782 -8.55857 -82.0992
-84.0001 -6.24584 -82.711
-28.635 86.1353 -14.9773
-32.6161 85.6967 -16.4267
-74.6185 60.447 58.3822
-117.481 49.0829 -60.3747
67.0746 -10.9534 -84.1024
63.3247 -11.5617 -84.3764
-122.229 44.8132 -62.5033
-75.6628 64.464 -53.7354
-79.2291 64.5721 -52.9709
-210.937 -46.4387 -11.8316
-207.911 -47.2771 -14.7164
-70.3864 -66.9041 51.5877
-82.0089 62.0732 -55.3852
181.001 57.574 -20.4517
187.789 54.7442 -20.7263
-57.996 -57.763 -63.211
-60.2542 -59.9461 -60.8767
185.026 56.5075 -18.9619
-52.1938 5.03633 85.9367
170.803 -60.9399 -21.4147
166.658 -61.8362 -22.7993
-242.161 -11.2301 20.9366
-241.443 -7.71396 23.3975
231.622 25.8613 -22.5151
229.371 25.1808 -25.8601
225.984 27.688 -26.9256
-235.385 -18.9683 -24.5117
-234.849 -16.6286 -26.7389
-226.061 27.1696 -27.3708
-222.945 28.4648 -29.1275
-220.764 31.3802 -28.1503
-250.634 -7.29294 -0.178739
-176.028 45.3163 43.5525
58.5887 51.3347 -68.4726
59.6943 48.5077 -70.3898
128.086 68.3817 32.5474
131.582 68.3035 30.9661
-176.903 47.6303 40.5454
-181.008 46.7597 39.3222
18.7046 -86.4178 15.2689
142.024 69.3639 -21.5206
141.078 68.3976 -25.0806
23.2384 -86.1703 15.8922
181.098 -44.0243 42.3152
25.6366 -86.6619 12.3796
-189.022 21.654 -53.8584
-189.444 17.9076 -55.0402
-212.327 -45.0141 14.0798
-120.842 -46.9986 -61.2153
-24.3217 -37.2679 79.2634
52.2873 18.5764 -84.0488
55.8026 16.7875 -84.1483
-25.2937 -41.1174 77.2983
-119.139 -6.51412 -77.2255
-115.758 -7.72882 -77.7413
-200.043 16.4849 50.724
-215.148 -43.2637 14.3208
-153.397 33.0961 61.3823
-156.817 31.3978 61.2162
-157.699 28.2521 62.4589
-79.9682 -83.4308 0.602756
-62.4496 73.4044 -43.3396
-61.9011 71.3432 -46.7443
-79.8044 -83.3553 -4.02131
-209.642 -18.6801 44.8807
-59.0837 71.9837 46.2056
-205.671 -19.6716 46.6708
-191.283 -46.3879 33.3548
-190.153 -45.0073 35.9374
-195.124 47.332 29.0228
-192.216 -42.6376 37.4513
-97.6293 19.9383 78.6099
-94.0185 21.0774 78.8513
-195.846 -41.8711 35.9851
-247.68 -8.8106 12.4837
188.064 -42.0215 40.5962
184.93 -44.2656 39.9696
-127.032 75.5377 7.89901
-123.362 76.084 9.59535
48.8175 1.73363 86.3089
130.443 15.6009 -73.6031
-179.658 46.5434 -40.3239
198.594 13.1819 52.3606
200.49 9.43565 52.2852
113.313 74.8999 23.7068
109.566 75.3596 24.3963
149.542 63.7479 -30.6973
145.709 65.3572 -29.5481
-166.876 -45.6679 -47.424
129.835 19.3644 -72.8368
-209.793 43.7108 -21.0906
-206.933 46.1344 -19.3132
126.459 20.2169 -73.3306
-61.8773 -0.223721 85.2947
-59.145 2.68404 85.4899
[...]
POINT_DATA 10490
VECTORS F double
1.34714e-08 3.06655e-08 7.32729e-09
1.23667e-07 8.78119e-08 -4.09752e-08
1.47832e-07 7.2097e-07 3.3891e-07
5.66767e-08 -7.52785e-09 -2.59271e-08
2.85442e-07 2.52194e-07 -4.80575e-09
1.7878e-07 1.90832e-07 -4.91584e-09
8.25351e-08 2.50518e-08 -7.12596e-08
-1.92076e-06 2.41631e-06 1.23587e-07
9.19709e-07 6.94241e-07 1.37427e-07
9.94111e-07 6.06057e-07 -2.70528e-08
1.19471e-08 7.22996e-08 -3.9929e-08
1.04663e-08 5.64154e-08 -1.88187e-08
1.02138e-07 3.44316e-07 1.78912e-07
-2.34719e-06 3.93382e-06 1.25669e-07
1.41192e-07 1.23042e-07 5.97167e-09
3.33983e-06 7.06262e-07 -9.05412e-07
4.27348e-06 8.06399e-07 -1.73186e-06
-1.11456e-08 2.11767e-08 1.12284e-08
-1.31036e-08 2.05539e-08 1.30694e-08
-2.91362e-05 7.4022e-06 8.50515e-06
-2.86931e-05 5.41904e-06 5.03398e-06
-3.20298e-06 1.92285e-06 -2.76125e-07
-2.91809e-06 1.44416e-06 -2.28776e-07
3.03899e-08 2.13136e-07 -1.84448e-07
5.66003e-08 2.40122e-07 -2.20999e-07
1.69521e-08 1.67586e-07 9.98368e-08
1.88294e-09 1.43175e-07 8.78399e-08
-4.58961e-08 1.95323e-07 2.51018e-07
-1.9206e-07 1.51596e-07 1.58308e-07
2.46442e-07 2.06179e-07 -1.88845e-07
5.5279e-07 2.50802e-07 1.12425e-07
3.7085e-07 2.74244e-07 -7.79707e-08
1.60238e-07 2.97251e-06 8.32695e-07
-2.30786e-07 1.68381e-06 4.70041e-07
-2.03645e-06 3.0381e-06 -2.12758e-08
1.52298e-08 2.87056e-08 6.03716e-08
7.89113e-05 1.34661e-05 2.65912e-05
8.50622e-05 1.55746e-05 3.13003e-05
3.96973e-08 3.1054e-10 -4.94932e-08
3.43796e-08 -2.81305e-09 -2.19442e-08
6.33531e-07 3.44531e-07 1.33003e-08
2.79769e-08 2.92591e-08 6.31159e-08
2.62798e-07 2.84323e-06 5.3438e-07
-1.62146e-06 3.79025e-06 -3.53044e-07
-2.23311e-08 1.33557e-08 -1.03272e-08
-3.77915e-08 3.40769e-08 1.52878e-08
1.25077e-06 8.56674e-07 -4.84412e-08
1.1183e-06 1.5102e-06 2.36447e-07
-5.04868e-08 1.01143e-07 -6.6677e-08
-4.39044e-08 1.13654e-07 -7.99659e-08
5.21487e-08 1.42854e-07 -5.33301e-08
6.81616e-08 1.51658e-07 -5.0046e-08
9.66643e-07 2.30934e-06 6.81381e-07
1.0657e-06 2.24268e-06 7.88404e-07
-3.95161e-08 9.67596e-08 1.54292e-09
-2.77097e-08 7.30958e-08 5.18228e-09
5.98376e-08 9.67289e-08 1.03835e-07
1.75693e-07 3.49498e-08 -6.61277e-08
-1.85324e-08 1.21868e-08 -1.77485e-08
-1.75718e-08 7.42355e-09 -1.63272e-08
-2.48362e-06 3.05496e-06 -2.35455e-07
-2.28305e-06 3.93188e-06 -1.71783e-07
1.41611e-08 8.65764e-08 7.25951e-08
-3.92613e-08 5.74865e-08 9.99473e-08
-1.07221e-08 1.23739e-08 1.44268e-09
1.06896e-05 5.79234e-06 2.5445e-06
-2.05576e-08 3.67308e-08 2.50067e-08
-2.57777e-07 4.75022e-06 -6.85075e-08
2.59183e-07 3.80303e-06 -1.78247e-07
-8.85516e-07 6.62454e-06 5.50202e-07
-3.20268e-06 5.2733e-06 1.07483e-07
-2.19271e-06 4.12116e-06 6.48371e-09
-1.32145e-06 2.20951e-06 -2.47023e-07
5.88187e-09 4.46441e-08 5.6063e-08
2.55084e-09 1.26836e-08 1.04785e-09
-3.40273e-09 4.40684e-09 -9.58764e-09
3.99043e-07 3.74668e-07 -2.23282e-07
9.75889e-07 1.66803e-06 -2.17761e-07
5.4843e-07 5.49811e-07 -3.33464e-07
1.3646e-09 2.86267e-08 3.03389e-08
-9.80407e-09 1.05723e-08 1.08757e-08
-2.93171e-09 1.08699e-08 2.42277e-09
2.04312e-08 1.54944e-08 4.00381e-08
2.75188e-08 6.47092e-09 4.36314e-08
1.42842e-08 3.64863e-09 2.67384e-08
1.69294e-08 1.80126e-08 3.82896e-08
4.02437e-08 3.44347e-08 8.5058e-08
2.41584e-07 2.89886e-07 -8.52286e-08
4.17788e-08 2.9481e-08 7.9697e-08
-6.07355e-07 4.71979e-06 -3.85133e-07
2.19457e-06 2.69956e-06 -2.41258e-07
2.04926e-06 3.13809e-06 -4.7406e-07
-2.53335e-08 2.03815e-07 1.87321e-07
-6.95877e-08 2.99123e-07 2.66285e-07
4.5781e-06 2.72467e-06 1.49785e-06
5.32361e-06 2.35095e-06 6.66973e-07
4.5377e-07 3.32653e-07 -4.02352e-07
1.25691e-06 5.5911e-07 -3.03653e-07
2.3208e-05 1.70998e-05 1.73699e-05
1.8767e-06 2.14289e-06 2.62894e-07
1.64337e-06 9.00741e-07 2.29007e-08
2.24982e-05 1.90177e-05 2.11755e-05
-1.06031e-06 3.47051e-07 -7.75939e-08
-1.12348e-06 4.17061e-07 -1.52545e-07
4.24687e-09 1.35948e-08 3.80078e-08
3.14289e-10 1.88145e-08 4.14512e-08
1.00024e-06 5.33658e-07 9.45577e-08
9.97302e-07 6.44258e-07 -3.085e-08
5.92574e-08 8.3356e-08 -1.9253e-08
4.25753e-05 1.92463e-05 -2.88447e-05
4.26467e-05 1.90134e-05 -3.15191e-05
3.41984e-08 8.58988e-08 1.59462e-08
4.36819e-08 -2.25906e-08 2.92792e-09
4.49296e-07 3.8363e-07 2.32299e-07
2.26404e-07 1.43908e-07 1.03669e-07
6.52708e-07 3.54722e-07 -2.70778e-07
7.8338e-07 3.73841e-07 -3.02061e-08
-5.87619e-09 1.15122e-07 -1.08187e-08
1.2165e-07 1.58878e-07 -5.98757e-08
4.09268e-07 2.2982e-06 -7.74868e-07
1.22195e-06 9.54721e-07 3.68437e-08
8.19824e-09 -2.08794e-09 -1.12215e-08
-1.1484e-09 -7.73429e-10 1.21621e-08
2.48238e-05 6.8592e-06 7.43895e-06
2.60166e-05 8.48158e-06 1.11731e-05
-4.32822e-08 5.01266e-08 -1.03232e-07
-2.90459e-08 6.49301e-08 -1.26668e-07
9.46427e-07 9.18579e-06 2.20662e-06
1.26384e-07 1.54121e-07 -2.18417e-07
1.23737e-07 1.78802e-07 -2.3535e-07
4.33287e-08 1.5328e-07 1.76044e-07
9.04092e-08 2.44995e-07 2.75055e-07
2.2689e-06 7.09086e-07 -3.73661e-07
-5.73851e-07 6.20317e-06 9.9317e-07
-2.18923e-06 3.7875e-06 6.23229e-07
7.47072e-07 1.3225e-07 -2.28341e-07
2.62673e-07 5.93998e-07 3.65979e-07
3.17843e-07 8.97377e-07 5.28615e-07
-6.30501e-08 8.31134e-08 -1.35212e-07
-6.1718e-08 6.05418e-08 -1.00301e-07
1.22706e-07 2.31429e-07 -1.67937e-07
2.71271e-08 1.4617e-07 -9.96022e-08
-2.82653e-05 1.57662e-05 -2.22835e-05
-2.98861e-05 1.4694e-05 -1.86704e-05
2.58761e-06 1.15142e-06 1.50845e-07
2.26244e-06 1.31405e-06 -2.07623e-08
-5.93497e-07 1.53128e-07 -5.91926e-10
-1.39625e-06 3.40812e-08 4.34796e-07
-1.23197e-06 1.14949e-06 -1.78437e-07
9.56443e-07 1.0116e-06 8.48096e-08
2.74553e-07 2.76665e-07 3.65212e-08
4.48233e-05 2.81851e-05 4.141e-05
-6.18778e-06 3.35348e-06 1.89794e-06
5.35369e-05 2.50993e-05 3.87344e-05
-2.50252e-09 7.79483e-09 -9.33316e-09
-1.64998e-09 6.07894e-09 -6.96891e-09
0.000116428 3.08147e-05 6.4359e-05
0.000103357 3.4748e-05 6.71591e-05
-7.60162e-10 -5.57326e-10 1.36151e-09
-1.29745e-09 6.16487e-10 2.70127e-09
3.84315e-07 5.4863e-07 -4.02135e-08
3.38519e-07 5.99695e-07 -1.07859e-07
3.70176e-05 2.76258e-05 -3.28145e-05
4.05726e-05 2.6599e-05 -3.36907e-05
1.9343e-07 7.65654e-08 -1.00528e-07
-4.0913e-09 -1.74962e-09 6.84176e-09
2.38125e-07 1.88209e-07 -1.92465e-07
1.28338e-08 1.25894e-07 -1.02858e-07
2.2132e-07 3.57605e-08 -8.11969e-08
1.73423e-09 1.33346e-07 3.63723e-08
5.33361e-07 2.84895e-07 1.13741e-07
5.7639e-07 3.10632e-07 4.11646e-08
9.91903e-08 1.39623e-07 1.32039e-07
8.90525e-08 3.83062e-09 -5.32738e-08
2.34368e-06 3.74077e-06 -2.79736e-07
2.72276e-05 4.20259e-06 -2.0718e-06
-3.34841e-08 2.77246e-07 7.9239e-08
-6.63544e-08 3.74628e-07 1.03842e-07
2.38324e-05 3.95181e-06 -4.20748e-06
2.57084e-05 4.3241e-06 -4.42303e-06
4.67991e-08 9.21012e-08 -2.76099e-08
6.52094e-08 1.83219e-07 -3.72077e-08
4.33089e-05 3.76871e-05 7.01824e-05
3.32026e-06 3.26278e-05 5.45391e-05
0.000190938 8.01128e-06 2.40415e-05
0.000173589 9.4336e-06 2.35026e-05
4.17724e-06 3.002e-05 4.88161e-05
2.93848e-07 2.18505e-07 2.88281e-09
8.33578e-07 4.53579e-07 -1.40227e-07
1.02516e-07 1.76262e-07 -4.95384e-08
7.52831e-07 5.72525e-07 1.29567e-07
6.87763e-08 2.01939e-07 -5.96411e-08
8.12695e-08 1.70089e-07 3.85559e-09
4.15724e-07 -1.67431e-07 3.85136e-07
4.29207e-07 3.17298e-07 -2.70428e-07
3.95083e-07 4.00431e-07 -3.37068e-07
5.24383e-05 1.6405e-05 2.74984e-05
5.64014e-05 1.53447e-05 2.64613e-05
6.84799e-07 -2.93046e-08 4.6209e-07
5.10834e-07 2.87978e-07 1.83081e-08
-7.72664e-08 3.65361e-08 3.03128e-09
-1.07582e-07 5.82199e-08 1.97969e-08
4.06906e-05 4.3351e-05 6.48893e-05
1.67583e-05 3.94299e-05 5.53032e-05
7.45523e-07 4.20067e-07 2.72721e-07
9.1209e-07 3.48768e-07 2.85349e-07
2.05145e-07 1.59253e-07 8.85784e-08
3.21022e-07 3.71263e-07 1.66727e-07
9.95911e-08 9.63243e-08 -1.2872e-07
1.12676e-07 7.492e-08 -1.09705e-07
1.39124e-09 1.01026e-08 1.38395e-09
9.84812e-10 9.91959e-09 1.79377e-09
8.6015e-08 6.15916e-08 -9.36709e-08
3.48877e-09 2.40554e-09 -8.3264e-09
-1.15534e-09 4.48317e-09 -5.03221e-09
2.85058e-05 1.32249e-05 -1.42541e-05
7.63964e-07 6.03697e-07 2.38663e-07
7.90422e-07 5.7037e-07 1.07089e-07
2.47287e-05 9.45341e-06 -1.05334e-05
2.77836e-05 1.3117e-05 -1.60037e-05
3.99751e-09 1.33803e-08 -2.88882e-08
4.22066e-10 7.1515e-09 -1.47163e-08
7.13769e-08 2.68216e-07 2.04769e-07
2.06499e-07 2.4896e-07 2.09043e-07
1.54639e-06 1.0691e-06 8.04782e-07
1.9221e-06 9.61886e-07 5.18976e-07
1.8403e-09 6.85479e-09 6.11985e-09
5.55639e-10 7.33716e-09 7.24155e-09
3.20114e-07 2.28513e-07 -4.75242e-08
5.24377e-10 2.88307e-09 5.89354e-09
-2.79087e-08 1.95903e-08 -9.7181e-09
-2.11806e-08 9.72413e-09 3.40297e-08
3.02001e-07 2.3118e-07 5.86792e-09
3.89478e-07 3.03349e-07 1.78958e-08
1.27571e-08 -1.79092e-09 2.7705e-08
-1.93978e-09 1.14578e-08 4.17877e-08
2.10209e-09 -5.50067e-09 -1.54366e-08
-2.0356e-06 2.2385e-07 6.55932e-07
5.09388e-08 -1.99858e-08 -1.34989e-09
-2.11554e-06 2.84355e-07 4.21791e-07
5.69373e-07 1.52012e-06 2.55798e-07
4.93189e-07 1.03003e-06 1.66436e-07
1.1474e-07 3.17412e-07 1.67171e-07
1.49242e-06 5.13836e-07 -1.85346e-07
4.73308e-07 2.11433e-07 1.41941e-07
4.84922e-07 2.9463e-07 1.40599e-07
1.59062e-07 3.43833e-07 1.62428e-07
-3.97638e-08 1.98688e-07 1.90251e-07
-1.9113e-08 2.1041e-07 1.84966e-07
4.18053e-08 1.10102e-08 -4.63545e-08
6.84681e-08 6.30675e-08 -5.15509e-08
2.18228e-07 1.20043e-07 -1.24146e-07
5.55511e-07 8.59623e-06 1.50356e-06
7.53601e-09 9.7184e-09 3.7088e-08
2.47028e-09 8.41318e-09 2.56787e-08
1.04179e-06 7.34144e-07 -1.65306e-07
8.09148e-07 1.02323e-06 -2.52265e-08
1.68854e-06 1.05658e-06 -5.42927e-07
1.25366e-06 8.40412e-07 -4.1531e-07
1.03322e-06 9.89812e-07 3.61449e-07
3.46827e-07 2.92941e-07 -1.99322e-09
3.20771e-07 2.60372e-07 7.46854e-08
2.73748e-07 2.1618e-07 -2.01511e-07
-1.1606e-08 1.92599e-08 8.28795e-09
-7.94437e-09 2.40993e-08 -1.15569e-09
-8.30625e-09 2.36111e-08 -3.28613e-09
7.23887e-08 2.80705e-08 -7.51096e-08
1.39167e-08 5.41018e-08 -8.2521e-08
7.28602e-08 1.10291e-07 -1.76337e-07
-1.06637e-08 6.41053e-08 -7.05564e-08
1.27725e-07 1.98114e-07 1.46956e-08
3.37174e-06 5.6897e-06 -3.55116e-07
2.63772e-08 2.0416e-08 6.67595e-08
1.93066e-08 1.98774e-08 6.83284e-08
1.18462e-06 2.639e-07 1.75246e-07
3.20277e-06 1.06255e-06 -4.12055e-08
1.37723e-07 2.42609e-07 -9.80666e-08
1.84825e-07 1.43009e-07 -9.36087e-08
1.16893e-07 5.88498e-07 4.95383e-08
-4.95263e-08 9.97474e-07 8.8216e-08
2.17412e-08 7.2732e-08 8.03862e-08
1.62884e-08 7.38954e-08 7.32721e-08
2.11491e-08 2.24897e-08 -4.1205e-08
1.86909e-08 3.56884e-09 -1.62263e-08
1.6199e-08 3.25393e-09 2.31767e-08
1.82936e-08 1.20909e-08 3.9139e-08
1.51046e-08 1.6903e-08 -3.36332e-08
6.75169e-06 3.76939e-06 1.3379e-06
2.46351e-05 1.77128e-05 -1.42869e-05
-4.51496e-09 2.27184e-07 2.83967e-07
-1.1953e-07 1.84122e-07 2.21922e-07
7.94254e-07 1.58311e-06 -2.68292e-07
6.81739e-07 1.89961e-06 -2.28214e-07
0.000140689 1.00463e-05 2.48441e-05
0.000127784 1.15589e-05 2.92373e-05
2.28e-05 1.54301e-05 -1.2408e-05
6.81339e-06 4.85596e-06 2.32457e-06
-8.84612e-07 7.21355e-07 -1.80323e-07
-9.19836e-07 6.34441e-07 -1.71452e-07
4.49702e-06 3.73501e-06 1.60121e-06
2.14925e-05 1.55199e-05 1.49134e-05
1.95359e-05 1.263e-05 1.18187e-05
1.37257e-09 -6.27162e-09 2.16202e-08
-2.08134e-08 1.51292e-08 -1.26028e-08
-1.38663e-07 6.74233e-08 6.42789e-08
1.83799e-05 1.26154e-05 1.08067e-05
-2.03513e-07 6.05013e-08 -5.01871e-08
-1.59565e-07 7.52441e-08 2.17458e-08
-4.47755e-07 2.79564e-07 -2.05173e-07
-2.75192e-07 1.59613e-07 -1.23825e-07
-1.9884e-07 7.60202e-08 -1.09921e-08
1.27272e-06 5.20493e-06 -2.10397e-07
9.54259e-09 5.41614e-09 -6.09548e-09
9.93831e-09 7.29427e-09 -1.0889e-08
-1.31544e-08 3.19978e-08 -1.46186e-09
7.95665e-09 2.23513e-08 1.74223e-08
-5.25974e-09 1.36882e-08 9.0969e-09
-1.49683e-08 2.76573e-08 1.06767e-08
-1.84798e-08 2.40338e-08 5.72554e-09
-3.13676e-08 5.44767e-08 -5.27814e-09
4.35536e-08 2.75201e-09 -4.85453e-08
2.65418e-07 3.11426e-07 4.07506e-08
2.69063e-07 1.52963e-07 -1.02656e-07
1.98461e-07 1.87101e-07 1.80179e-08
-2.24858e-08 9.49199e-08 -1.2918e-08
9.61269e-07 4.41466e-07 1.63242e-08
-4.18908e-06 3.99037e-06 2.5528e-06
-2.99852e-06 4.07152e-06 2.49449e-06
-1.0569e-06 5.8763e-08 3.85754e-07
-9.17835e-07 -4.67419e-08 5.80577e-07
1.47712e-06 6.93087e-07 -2.51543e-08
1.35163e-06 2.59435e-07 4.53235e-07
-1.50431e-08 1.00733e-08 5.92659e-08
-5.35216e-07 -1.86017e-08 -4.92376e-07
-9.22239e-07 6.76761e-08 -4.50542e-07
-4.52465e-09 8.59017e-10 5.46565e-09
-1.17367e-08 6.5679e-09 1.29827e-08
-1.10496e-08 -6.14572e-10 -1.4969e-09
1.62525e-07 4.86362e-07 1.25709e-07
1.31216e-07 4.73332e-07 9.87075e-08
-2.67558e-08 2.21835e-08 2.15226e-08
3.38853e-07 2.3698e-07 -2.63839e-07
-4.25418e-08 2.77954e-07 1.29089e-07
-1.44207e-06 2.15827e-06 3.67187e-07
-1.38038e-06 2.03038e-06 2.92989e-07
-1.44574e-07 2.55224e-07 1.29969e-07
-7.26087e-08 1.0208e-06 -7.23922e-08
-1.0788e-08 1.08568e-06 -1.0597e-07
3.17383e-07 5.78615e-07 -3.48018e-08
-2.57486e-08 2.68091e-08 3.36332e-08
1.59085e-06 2.46678e-06 -8.43302e-07
1.76742e-06 1.82797e-06 -3.83254e-07
-5.08858e-08 2.0233e-06 -9.30931e-07
-3.27766e-08 3.78365e-09 -8.67591e-09
3.29242e-05 2.07178e-05 2.92813e-05
2.65326e-05 2.01969e-05 2.65236e-05
8.37665e-09 -4.38423e-10 -1.126e-08
4.88427e-09 7.7594e-08 3.50892e-08
3.85759e-05 2.18258e-05 -2.79631e-05
1.70061e-08 1.33979e-07 6.56475e-08
2.54741e-08 2.80632e-08 5.69154e-08
4.194e-08 2.38554e-08 5.70444e-08
3.62291e-07 3.63442e-07 -2.94512e-07
2.75646e-08 2.4173e-08 4.48402e-08
2.86235e-06 5.59968e-06 -9.85048e-07
3.55383e-06 4.32078e-06 -6.36179e-07
1.41657e-08 6.6949e-08 8.73381e-08
-1.22824e-08 7.1899e-08 2.09115e-08
-2.61525e-08 1.38473e-08 2.91667e-08
-1.37291e-08 3.03033e-10 8.11277e-09
6.94706e-06 1.47206e-06 -3.98827e-07
8.73376e-06 2.15708e-06 -3.35686e-06
-2.44348e-06 2.08921e-06 1.27243e-07
-1.77419e-07 3.97361e-07 4.573e-08
2.25762e-06 9.02037e-07 -1.90307e-07
-5.95579e-08 7.88159e-08 7.81414e-09
-2.46686e-08 9.23963e-08 -5.09316e-09
-1.95576e-06 1.67554e-07 6.15054e-07
-2.20618e-06 5.17774e-07 -3.86384e-07
-9.64643e-07 2.29689e-07 -9.83373e-08
-1.13374e-06 1.35443e-07 -3.84876e-07
-7.24256e-08 9.67926e-08 -6.20065e-08
-4.5877e-07 3.86078e-07 2.52406e-09
4.80787e-07 1.62168e-07 -2.4943e-07
4.81041e-07 1.80061e-07 -2.00907e-07
-4.81382e-07 4.00097e-07 8.67203e-09
6.81195e-07 4.77904e-06 7.30388e-08
1.67733e-06 4.13252e-06 1.233e-08
1.13413e-06 3.7619e-06 1.70519e-07
1.36597e-08 1.54873e-08 5.59528e-08
7.08443e-06 1.52242e-06 2.0201e-07
7.85907e-06 1.67855e-06 -1.05179e-06
-1.39847e-06 6.43848e-06 -1.12662e-06
1.31294e-08 -2.16751e-09 1.55771e-08
1.90318e-06 4.26806e-06 5.64959e-08
3.80437e-06 7.27907e-06 3.77312e-06
4.56953e-06 5.71032e-06 2.50187e-06
8.15542e-06 7.07874e-06 3.34488e-06
1.13897e-07 4.14543e-07 7.17559e-08
8.41333e-08 5.30601e-07 5.3107e-08
-3.3082e-07 1.5127e-06 1.74617e-07
-9.48952e-08 8.57808e-07 1.04641e-07
6.59554e-07 2.8806e-07 1.42068e-07
3.58357e-07 5.21895e-07 1.08343e-07
1.86303e-06 6.31652e-07 -2.4446e-08
2.41075e-06 9.8846e-07 3.29851e-07
-3.84361e-08 9.38623e-10 2.96413e-08
-3.28539e-08 -2.61264e-09 1.52175e-08
7.45834e-08 1.78691e-08 -7.94233e-08
5.89161e-08 7.92897e-09 -4.82102e-08
-2.22094e-08 7.37266e-08 1.11043e-07
1.5762e-08 6.02706e-08 1.18094e-07
-1.5347e-08 6.2257e-08 1.03744e-07
2.62641e-07 1.00336e-07 1.99954e-07
3.90164e-07 2.36605e-07 -5.79782e-08
5.47285e-07 2.57577e-07 1.38123e-07
2.30571e-08 7.34916e-08 -8.02168e-08
1.24182e-08 7.49847e-08 -7.65386e-08
-3.45337e-08 5.64377e-07 -3.2769e-07
3.7595e-08 3.31469e-07 -1.97748e-07
-6.42453e-07 3.18216e-06 -5.66198e-07
-1.20427e-06 2.42203e-06 -4.4016e-07
-1.41719e-08 6.18703e-08 -5.47674e-08
2.02076e-07 7.62044e-11 -4.09877e-08
-2.11045e-08 5.10684e-09 1.20802e-08
1.31578e-08 3.24409e-08 -5.02211e-08
-1.36605e-06 3.9029e-06 -1.69697e-07
-7.567e-08 3.70396e-07 -2.7508e-07
-1.37527e-07 3.222e-07 -2.27271e-07
1.92716e-05 2.56595e-05 2.53555e-05
1.60786e-06 8.21943e-07 1.17092e-06
7.46765e-05 6.47244e-06 6.86547e-06
8.33392e-05 6.68515e-06 -3.26532e-06
6.91873e-05 6.8187e-06 -1.07252e-05
8.07546e-05 6.47105e-06 -5.54784e-07
1.81691e-06 8.07768e-07 1.07285e-06
1.85194e-05 2.17669e-05 2.07838e-05
1.70079e-05 2.1832e-05 1.92347e-05
4.48082e-08 2.84569e-08 -7.96374e-08
-2.51425e-08 5.60834e-09 -2.76006e-08
-1.22368e-08 4.63206e-09 -5.07858e-08
5.03448e-08 1.77431e-08 -6.59135e-08
2.26769e-08 8.08349e-09 -3.20871e-08
1.35951e-07 2.38635e-07 8.44419e-08
1.01669e-07 3.51305e-07 2.08952e-07
-6.42059e-07 8.69597e-08 2.30746e-07
-1.78522e-05 7.9051e-06 -7.88025e-06
-1.91298e-05 7.71041e-06 -8.0685e-06
-8.32079e-07 8.07454e-07 -2.23924e-07
2.07403e-07 1.99778e-07 -1.61981e-07
3.5965e-07 3.77588e-07 1.08938e-07
1.84507e-07 5.03473e-07 -2.67174e-07
1.73835e-07 2.12667e-07 -1.42786e-07
1.27012e-07 4.6139e-09 7.56732e-08
1.04107e-07 5.50581e-08 1.32979e-07
6.57115e-08 3.30871e-08 8.59803e-08
1.12453e-06 1.51777e-06 -1.02789e-07
1.24872e-06 1.71055e-06 -1.057e-07
-3.07981e-05 1.61812e-05 -2.52448e-05
-1.02087e-07 2.13691e-07 4.18565e-09
3.48339e-08 6.88873e-09 2.30521e-08
-2.92777e-08 6.9695e-08 1.26651e-07
5.97411e-07 1.81563e-06 -1.92484e-07
6.29244e-07 1.33554e-06 -1.63416e-07
-5.80121e-08 9.58042e-08 -2.26011e-09
1.14376e-07 1.82405e-07 4.62309e-09
-1.14165e-07 1.70671e-07 -1.2968e-08
-1.73194e-05 1.54513e-06 -1.28091e-07
2.69012e-09 1.13518e-07 -5.4878e-08
-4.15459e-09 9.68337e-08 -4.8167e-08
-1.12293e-05 3.38393e-07 -1.33154e-06
7.72202e-07 7.03329e-07 -2.39548e-07
-1.47e-05 3.01465e-06 2.31012e-06
-1.10347e-08 1.00638e-07 2.48805e-09
1.54922e-06 5.84922e-07 1.08915e-07
1.72549e-06 4.59904e-07 4.38906e-07
2.35759e-09 6.60487e-08 -3.38757e-08
-8.92553e-09 7.84409e-08 2.40517e-08
1.11858e-07 1.99301e-07 -1.18314e-07
1.77562e-08 -1.06558e-08 -1.7091e-08
1.75206e-08 1.59341e-10 -3.58927e-08
4.37349e-07 4.49539e-07 -1.16155e-07
5.4106e-07 3.78898e-07 6.77822e-08
2.53478e-06 1.96933e-06 7.68471e-07
2.96267e-05 2.25955e-05 2.89262e-05
2.30667e-05 2.24136e-05 2.68029e-05
1.78703e-08 8.14972e-10 2.82084e-09
-1.56103e-08 2.1958e-10 -1.583e-08
2.3581e-05 2.2237e-05 2.47995e-05
3.52555e-07 9.46476e-08 1.51557e-07
1.81892e-07 1.4045e-07 1.62797e-08
-2.1241e-08 5.50029e-08 -1.13024e-09
-1.0634e-07 2.07598e-07 1.86469e-07
-9.42558e-08 2.28082e-07 1.87346e-07
-3.94979e-07 3.43221e-06 2.93802e-07
-1.01971e-07 4.29911e-08 4.04923e-08
-2.42991e-08 1.23165e-07 9.72609e-08
-1.30525e-05 2.78533e-05 -4.723e-05
-1.0205e-05 2.73986e-05 -4.22591e-05
-5.46897e-07 3.41899e-06 3.0666e-07
1.06348e-06 1.17071e-06 -2.23367e-07
-1.74368e-07 2.93958e-06 3.9141e-07
-2.59288e-09 -3.78704e-09 -2.19951e-08
4.00067e-07 7.84351e-07 -1.81644e-07
7.73983e-06 3.15361e-05 -3.10366e-05
4.37672e-07 5.98537e-07 -7.81057e-08
8.82806e-07 5.89631e-07 5.87937e-07
5.81007e-08 1.02565e-07 -5.13826e-08
-3.21628e-08 4.65583e-08 3.02473e-08
9.1724e-09 2.25634e-09 -3.84347e-09
-4.25971e-09 3.37581e-09 -2.16441e-08
-2.03325e-05 1.80652e-05 -1.77587e-05
-2.97615e-08 6.15411e-08 9.64801e-08
1.21812e-06 4.6631e-07 -1.41955e-07
-5.57208e-09 -2.74162e-09 1.99858e-09
6.96176e-08 1.33423e-07 1.46245e-07
2.25739e-08 7.72335e-10 2.2849e-08
1.28544e-05 2.25621e-05 -1.67696e-05
2.54138e-07 8.96516e-08 -1.03524e-07
1.30102e-05 2.30292e-05 -1.90808e-05
0.000279401 7.83922e-08 -3.15978e-05
0.00025805 2.82671e-06 -3.8575e-05
1.62644e-08 9.8793e-08 9.49708e-08
0.000164045 2.38126e-05 -6.94707e-05
1.43629e-08 1.1135e-07 9.1279e-08
-5.33606e-08 6.71835e-08 1.18871e-08
-6.159e-08 4.90746e-08 -6.40733e-09
4.38106e-08 1.53281e-07 1.29657e-07
9.939e-07 1.02938e-06 -3.25957e-07
1.44937e-08 1.01258e-10 -9.13298e-09
3.38021e-07 2.59417e-07 -8.32734e-08
3.29481e-05 3.0966e-05 -3.3896e-05
3.39607e-07 1.83817e-07 7.49142e-08
3.43926e-07 1.48588e-07 1.34137e-07
3.49001e-07 1.75553e-07 1.13844e-07
3.15869e-05 2.25863e-05 3.14976e-05
-8.97732e-08 4.82039e-08 -1.7789e-08
-7.87373e-08 4.14215e-08 -4.56758e-08
-1.72585e-07 1.01337e-07 -8.51673e-09
-3.0238e-07 2.52297e-07 -6.51292e-08
3.53132e-05 2.60437e-05 3.59262e-05
7.17424e-06 3.87463e-06 -1.20982e-06
3.22193e-06 4.25655e-06 -1.94676e-06
3.57959e-06 4.36194e-06 -1.84766e-06
0.000182943 6.42286e-06 -2.29098e-05
0.000171048 7.23111e-06 -2.08183e-05
4.26153e-06 3.87642e-06 -1.57072e-06