# vtk DataFile Version 2.0
S, Created by Mohamad Ibrahim Cheikh
ASCII
DATASET UNSTRUCTURED_GRID
POINTS 10490 double
-223.577 20.3396 -34.7912
-223.727 23.2868 -32.7658
-130.488 -29.295 69.2903
-194.383 -37.8828 -41.0233
-207.466 29.5123 40.0417
-235.874 27.4017 13.4741
-191.273 -39.7114 -41.0835
14.3703 -3.08966 87.8019
-191.052 39.2353 -41.6628
-193.39 36.944 -42.4294
-251.146 3.21381 -3.38161
-251.006 5.46355 -0.715303
-204.325 29.306 -42.1173
18.5602 -1.44324 87.7482
-201.226 30.3659 -43.1792
-151.265 68.753 -14.6862
-148.454 69.9652 -12.2747
241.381 21.761 -11.7084
240.378 24.345 -8.78201
39.0365 73.03 -47.1598
42.8862 72.2992 -47.8711
45.3688 -3.16632 -86.4984
49.2352 -1.48658 -86.2844
-145.562 -45.4905 -55.5024
-142.057 -46.9145 -55.4288
-191.797 -27.3612 49.9163
-189.472 -30.0399 49.4611
-64.3406 -67.8321 51.3417
-66.4844 -66.0132 53.3394
-121.223 -41.6754 -64.8693
-205.481 44.6118 24.1761
-208.426 41.8765 25.9198
-64.8731 -22.5343 81.9814
-61.2475 -23.8988 81.9364
44.2754 4.2426 86.5217
-201.398 -44.9169 27.5779
-50.5352 82.9206 -23.5694
-47.257 82.6379 -25.329
-109.54 -78.4117 -11.2495
-105.514 -79.2425 -10.0787
-195.484 42.6465 35.3087
-200.946 -43.0025 30.8402
-54.4219 -15.2716 84.5469
3.48792 8.34563 87.5949
226.254 36.0728 -13.2456
223.493 37.2796 -15.4578
-146.971 22.4393 -67.7933
-143.813 23.7155 -68.1869
-167.022 -43.0215 -49.7772
-163.504 -43.4761 -50.8018
-215.265 -7.15534 -44.9386
-215.165 -3.15931 -45.453
-105.615 -17.5719 77.9074
-104.077 -21.1099 77.28
-247.96 -12.5208 7.72454
-247.223 -12.2229 10.5723
-226.223 -18.8443 33.5158
-129.021 -40.8331 -63.5502
238.446 4.07583 -27.6838
236.191 2.1182 -30.1596
30.6325 -3.67375 -87.2675
26.6647 -1.92249 -87.4829
-224.96 -22.5382 32.2518
-47.6614 -75.8707 41.3463
-235.553 -26.7703 15.3058
-109.995 51.3238 -60.2378
-237.92 -25.2884 13.1994
-16.8496 -1.37335 -87.7915
-20.0159 -3.93652 -87.6325
25.2892 7.66442 -87.2179
27.301 3.81686 -87.3967
25.4066 1.79693 -87.5314
45.946 -6.28076 -86.2908
-242.159 -16.9739 16.6271
249.587 -5.36872 -9.4094
249.11 -2.30242 -11.881
-169.134 48.1746 43.8285
30.4769 -13.4491 -86.3099
-165.505 47.949 45.7308
-244.371 -14.4425 14.9736
243.986 6.92821 20.1945
244.544 3.56463 20.2423
-218.529 -34.2524 26.9089
-142.145 -69.4108 21.27
-139.629 -70.7397 18.7869
-221.095 -32.056 27.0488
-157.97 -59.7992 33.3598
-205.033 32.469 39.2807
-154.318 -61.3631 32.6037
21.319 7.46953 87.3645
-119.023 18.5753 75.2632
-116.357 20.6705 75.2273
25.5774 -59.0283 64.6496
29.1113 -57.6552 65.6972
-134.442 55.1131 -49.9367
-136.708 52.613 -51.8438
-177.083 57.9257 23.4393
-176.668 59.4044 19.8466
-69.3385 65.6923 -53.2907
-62.7089 16.9718 -83.5135
-66.3302 16.9322 -83.1784
-65.8249 67.2868 -51.8266
124.439 57.7536 50.1265
121.005 58.3609 50.4516
-132.441 -69.8468 26.7943
-132.815 -68.0007 30.9882
-188.843 35.1314 46.3004
-185.096 37.3047 46.4525
-232.725 13.1758 -30.6505
-58.8117 75.7166 39.8438
-60.1204 77.225 36.5757
-231.926 16.8001 -29.6013
-175.27 -46.9577 -42.1658
-178.78 -11.222 60.868
-181.794 -8.3726 60.2304
-195.806 53.7609 12.6404
-198.357 52.0746 14.6687
-195.137 -6.40139 -55.1459
-196.108 -2.3607 -55.0452
-155.747 25.1028 64.3741
-159.436 22.506 64.2287
-196.21 -54.5516 -7.39888
-193.182 -56.048 -5.79631
-90.5615 75.3927 -32.4938
-86.5493 75.8133 -32.8518
-39.2324 -78.9664 -36.33
-42.7331 -77.6531 -38.6059
-35.6803 20.7813 -84.5948
-119.247 -59.0744 -50.1326
-116.052 -58.3862 -51.8281
-103.565 -58.9084 54.412
-107.458 -57.2151 55.2873
-176.026 46.9233 -41.8174
26.8943 14.1355 -86.346
23.7405 15.8614 -86.1592
-175.588 44.5897 -44.5094
-89.4397 -39.5787 72.0982
-93.3079 -38.4344 72.1171
-1.7085 -75.0108 -46.0111
2.63056 -75.2476 -45.6175
-158.019 -33.1916 -59.8767
-154.736 -36.6291 -58.9147
24.832 73.2756 47.9499
27.3803 71.2856 50.7009
-166.524 38.8373 53.2975
-168.943 36.4673 54.035
126.632 60.2669 46.3534
124.968 62.2383 44.2537
55.8972 20.2774 83.3684
-158.13 12.6677 67.247
-155.54 9.86266 68.4456
-42.9828 74.2498 -44.7746
70.8179 53.142 -65.6195
-40.1601 75.8736 -42.3053
222.064 -27.8281 -30.5326
225.276 -26.0122 -29.2253
-15.0665 80.5196 -35.1112
-18.0686 79.3389 -37.5416
247.477 -7.06408 13.9945
245.671 -9.07238 16.5073
-182.884 19.8667 57.0476
-181.344 22.7109 56.5863
-54.7093 69.3091 50.7326
-52.4117 71.1692 48.4007
-221.669 26.3888 -32.1211
245.288 -12.7014 14.713
-123.331 -44.6559 -62.3507
-128.466 -46.8977 -59.3639
-126.778 -44.2461 -61.7941
-219.064 -11.0505 41.7922
-206.357 49.8853 -6.47877
-208.041 48.5234 -9.51675
-173.56 -35.1362 53.1174
-196.131 -34.8661 -42.647
-56.7917 10.7206 85.0541
-98.8166 80.7797 4.80985
-149.826 -21.4622 67.3431
-153.217 -21.7059 66.3231
-105.034 79.9279 2.2069
-102.641 80.1628 5.30171
-208.259 -1.82337 -49.3018
-211.7 -0.422403 -47.5063
7.0507 77.3151 -41.9558
8.16396 75.4839 -45.1444
-12.1832 86.2961 -16.6977
-16.3312 85.6394 -19.4227
11.9225 74.8503 -46.0871
-209.312 34.9125 -34.0773
-209.41 37.492 -31.1364
-243.667 12.2943 -17.9921
-205.979 40.1041 -30.6802
-237.95 16.7339 23.0636
-240.122 13.5392 22.3945
-198.662 34.6909 41.3358
-44.0818 -51.8533 -69.4069
-47.9276 -52.1698 -68.8555
-63.3475 78.8421 -32.1965
-60.1406 79.805 -30.5344
-198.89 37.6901 38.4768
-195.369 39.9909 38.3627
193.192 51.8486 -22.0509
191.205 51.6136 -24.5771
-16.8778 73.6448 -47.8077
-15.9715 71.8266 -50.5342
-160.699 -8.66834 67.1357
-158.241 -5.13676 68.2051
-159.175 -12.1814 67.0345
-155.58 -13.9416 67.7214
-181.215 -39.3662 -46.6243
-187.066 -34.8926 -47.3521
234.201 -8.19793 31.0077
231.367 -8.83941 33.3482
-185.722 -37.8041 -45.7373
-220.423 -36.3319 -21.8076
-223.2 -33.1947 -23.2995
-73.5715 69.9199 46.8244
-199.233 43.3836 -31.6562
-202.397 40.5282 -32.9571
-78.4117 72.1761 42.2121
-74.4969 72.0883 43.2183
-199.862 -47.1002 -25.2009
-196.405 -49.1625 -24.5824
-156.236 -38.558 57.1732
-155.211 -34.5998 59.9787
-162.878 56.2818 -36.4469
-159.723 58.1082 -35.2714
245.94 -16.0776 8.95246
246.756 -13.0532 10.9097
-202.184 25.1284 -45.9106
246.469 -16.6405 5.45946
-222.675 -40.7291 -3.81046
-219.564 -42.6763 -4.53548
-225.906 36.4588 -12.9114
-224.079 36.2194 -16.8752
-228.9 -34.8682 10.6505
-231.376 -33.577 7.89226
-225.472 -37.7617 9.69436
119.533 74.8301 19.8786
-172.163 -51.1027 -38.7774
115.336 75.6463 19.8244
47.9255 12.1949 -85.5224
51.5112 10.7895 -85.456
-180.219 -22.169 57.2376
-179.914 52.3324 -32.2853
-165.442 0.851821 66.2737
-168.565 2.83094 65.2473
-181.017 -17.4106 58.5592
36.4515 -59.7508 63.3338
37.7862 -57.2037 65.5509
-159.984 -59.9391 -31.9017
-182.766 -21.7967 -56.3855
-184.308 -18.028 -57.0974
-11.923 15.2449 -86.569
-188.59 -54.9976 19.1022
-192.466 -53.1209 19.6707
-145.916 9.35088 -71.0622
-143.721 12.1606 -71.1844
-174.332 52.4438 35.6764
-173.404 50.7362 38.5809
-187.157 39.7382 -43.3175
-231.491 33.5023 -7.79804
-229.085 35.9758 -4.95792
-234.898 30.8758 -5.94529
241.404 7.7213 23.4446
239.892 10.8373 24.1019
240.609 13.4024 21.8297
-138.877 -61.8295 -39.4944
-138.123 -60.1615 -42.2951
-141.494 -58.2481 -43.5894
-200.351 -41.1631 -33.6924
-218.713 20.1198 -38.5056
-52.6152 9.16367 85.5634
-56.6791 -81.1826 27.5695
-60.1937 -81.4604 25.78
-152.584 56.1745 41.6893
-153.313 58.0787 38.6412
-189.41 -9.89287 -57.042
-186.062 -8.87666 -58.5388
64.9155 -8.69718 84.5721
67.8934 -7.05406 84.4387
-196.835 -37.218 40.192
-200.414 -34.6083 40.3576
-180.668 -48.2451 -37.6854
-174.531 -52.0915 -36.0707
-215.618 -38.5088 23.8565
-218.655 -36.4146 23.7612
-178.254 -50.9814 -35.4223
-121.409 48.0242 -60.2746
-70.7485 60.0059 59.4179
26.871 -68.2961 54.6923
24.806 -66.584 56.8791
-87.1774 -8.55699 -82.0994
-83.9995 -6.24394 -82.7113
-28.4951 86.1452 -14.9528
-32.489 85.7081 -16.3979
-74.5959 60.4623 58.3698
-117.474 49.0878 -60.3724
67.0737 -10.9527 -84.1025
63.3238 -11.5611 -84.3766
-122.225 44.8169 -62.5017
-75.6414 64.4794 -53.7206
-79.2097 64.5847 -52.9591
-210.937 -46.4388 -11.8315
-207.911 -47.2771 -14.7164
-70.3866 -66.9041 51.5877
-81.9906 62.0857 -55.3745
181 57.574 -20.4517
187.789 54.7442 -20.7263
-57.9964 -57.7628 -63.2112
-60.2545 -59.9459 -60.8769
185.026 56.5075 -18.9619
-52.1925 5.04152 85.9365
170.803 -60.9399 -21.4147
166.658 -61.8362 -22.7993
-242.161 -11.23 20.9366
-241.443 -7.71394 23.3975
231.622 25.8613 -22.5151
229.371 25.1809 -25.8601
225.984 27.6881 -26.9256
-235.385 -18.9683 -24.5117
-234.849 -16.6286 -26.7389
-226.061 27.1699 -27.3707
-222.945 28.465 -29.1276
-220.763 31.3804 -28.1503
-250.634 -7.29285 -0.178752
-176.027 45.3167 43.5525
58.5845 51.3387 -68.47
59.6913 48.5118 -70.3873
128.085 68.3818 32.5478
131.581 68.3035 30.9666
-176.902 47.631 40.5454
-181.007 46.76 39.3227
18.7046 -86.4177 15.2689
142.023 69.3639 -21.5211
141.077 68.3976 -25.0811
23.2384 -86.1703 15.8922
181.098 -44.0243 42.3152
25.6366 -86.6619 12.3796
-189.022 21.6544 -53.8583
-189.444 17.9081 -55.0401
-212.327 -45.0141 14.0798
-120.842 -46.9984 -61.2155
-24.3217 -37.2676 79.2635
52.2859 18.5785 -84.0484
55.8012 16.7895 -84.148
-25.2938 -41.1172 77.2984
-119.139 -6.51311 -77.2256
-115.758 -7.72774 -77.7414
-200.043 16.4855 50.724
-215.148 -43.2637 14.3208
-153.395 33.0986 61.3814
-156.815 31.3996 61.2158
-157.699 28.2542 62.458
-79.9683 -83.4308 0.602748
-62.4168 73.425 -43.3105
-61.8746 71.3632 -46.7179
-79.8044 -83.3553 -4.02132
-209.642 -18.68 44.8808
-59.0454 72.0054 46.1778
-205.671 -19.6715 46.6708
-191.283 -46.3879 33.3548
-190.153 -45.0072 35.9374
-195.124 47.3323 29.0225
-192.216 -42.6376 37.4514
-97.6264 19.9438 78.609
-94.0149 21.0818 78.8506
-195.846 -41.871 35.9852
-247.68 -8.81053 12.4837
188.064 -42.0215 40.5963
184.929 -44.2656 39.9696
-127.025 75.5391 7.89861
-123.353 76.0861 9.592
48.8151 1.73571 86.309
130.443 15.6013 -73.6031
-179.656 46.5443 -40.3241
198.594 13.182 52.3606
200.49 9.43575 52.2852
113.311 74.9001 23.7074
109.564 75.3602 24.3959
149.541 63.7481 -30.6974
145.708 65.3573 -29.5485
-166.876 -45.6678 -47.4241
129.834 19.3648 -72.8368
-209.793 43.711 -21.0909
-206.932 46.1346 -19.3134
126.459 20.2173 -73.3306
-61.8766 -0.218959 85.2948
-59.1433 2.68816 85.4899
[...]
POINT_DATA 10490
VECTORS F double
1.3533e-08 3.06851e-08 7.29052e-09
1.23296e-07 8.76123e-08 -4.08058e-08
1.47895e-07 7.19879e-07 3.38454e-07
5.65493e-08 -7.50937e-09 -2.58707e-08
2.84864e-07 2.5138e-07 -4.57418e-09
1.78291e-07 1.90281e-07 -4.84752e-09
8.23373e-08 2.49721e-08 -7.10703e-08
-1.91024e-06 2.40564e-06 1.2293e-07
9.1621e-07 6.91101e-07 1.36449e-07
9.89534e-07 6.0375e-07 -2.6496e-08
1.19101e-08 7.20983e-08 -3.97789e-08
1.04322e-08 5.62403e-08 -1.8708e-08
1.02268e-07 3.43055e-07 1.77962e-07
-2.33299e-06 3.90775e-06 1.2469e-07
1.4111e-07 1.23319e-07 6.2127e-09
3.33152e-06 7.07614e-07 -8.88421e-07
4.26008e-06 8.06526e-07 -1.71083e-06
-1.13928e-08 2.15541e-08 1.13075e-08
-1.33905e-08 2.09421e-08 1.31862e-08
-2.89849e-05 7.56701e-06 8.78065e-06
-2.85798e-05 5.47809e-06 5.13886e-06
-3.21649e-06 1.93869e-06 -2.77513e-07
-2.93117e-06 1.46017e-06 -2.29929e-07
3.03777e-08 2.12545e-07 -1.83959e-07
5.65678e-08 2.39538e-07 -2.20492e-07
1.70175e-08 1.67309e-07 9.97142e-08
1.98819e-09 1.42947e-07 8.77516e-08
-4.58498e-08 1.95232e-07 2.50904e-07
-1.91811e-07 1.51572e-07 1.58317e-07
2.4617e-07 2.05727e-07 -1.88492e-07
5.50867e-07 2.49963e-07 1.11968e-07
3.69916e-07 2.73251e-07 -7.72894e-08
1.60961e-07 2.95921e-06 8.28995e-07
-2.26361e-07 1.6832e-06 4.70232e-07
-2.02345e-06 3.01868e-06 -2.12488e-08
1.52554e-08 2.86582e-08 6.0317e-08
7.82221e-05 1.31971e-05 2.58954e-05
8.43e-05 1.52665e-05 3.05518e-05
3.96903e-08 3.00589e-10 -4.94141e-08
3.43881e-08 -2.81874e-09 -2.19095e-08
6.31763e-07 3.43516e-07 1.33236e-08
2.79883e-08 2.92115e-08 6.30578e-08
2.57596e-07 2.83137e-06 5.31728e-07
-1.61795e-06 3.76872e-06 -3.51177e-07
-2.29397e-08 1.37689e-08 -1.04722e-08
-3.87382e-08 3.4901e-08 1.56019e-08
1.24723e-06 8.541e-07 -4.83389e-08
1.11785e-06 1.49729e-06 2.32109e-07
-5.02783e-08 1.00876e-07 -6.65312e-08
-4.37055e-08 1.13347e-07 -7.97815e-08
5.20217e-08 1.424e-07 -5.31836e-08
6.79674e-08 1.51185e-07 -4.99003e-08
9.62554e-07 2.29738e-06 6.7793e-07
1.06388e-06 2.23208e-06 7.85135e-07
-3.9398e-08 9.64937e-08 1.57644e-09
-2.76245e-08 7.29101e-08 5.2077e-09
5.97762e-08 9.65218e-08 1.03668e-07
1.75557e-07 3.49777e-08 -6.61114e-08
-1.87887e-08 1.23729e-08 -1.79916e-08
-1.78489e-08 7.59511e-09 -1.65797e-08
-2.48684e-06 3.07329e-06 -2.36248e-07
-2.28727e-06 3.95035e-06 -1.72162e-07
1.42066e-08 8.63893e-08 7.25027e-08
-3.92048e-08 5.75021e-08 9.99837e-08
-1.06738e-08 1.23494e-08 1.48828e-09
1.05684e-05 5.75472e-06 2.54045e-06
-2.04906e-08 3.66477e-08 2.49969e-08
-2.41553e-07 4.75613e-06 -6.87233e-08
2.70907e-07 3.81377e-06 -1.78891e-07
-8.95522e-07 6.63677e-06 5.5143e-07
-3.20135e-06 5.29237e-06 1.087e-07
-2.19341e-06 4.14191e-06 7.08624e-09
-1.33004e-06 2.2269e-06 -2.48789e-07
5.88755e-09 4.45454e-08 5.59738e-08
2.55938e-09 1.28106e-08 1.00823e-09
-3.44044e-09 4.49113e-09 -9.70057e-09
4.017e-07 3.73449e-07 -2.20691e-07
9.83012e-07 1.68236e-06 -2.19652e-07
5.50583e-07 5.48105e-07 -3.30732e-07
1.37988e-09 2.85642e-08 3.03079e-08
-9.85815e-09 1.06872e-08 1.09167e-08
-2.94022e-09 1.09769e-08 2.41544e-09
2.04388e-08 1.54555e-08 3.99945e-08
2.75307e-08 6.47659e-09 4.36627e-08
1.43004e-08 3.65435e-09 2.67743e-08
1.69408e-08 1.79714e-08 3.8252e-08
4.02579e-08 3.44155e-08 8.50322e-08
2.41487e-07 2.88772e-07 -8.43727e-08
4.17956e-08 2.94687e-08 7.96825e-08
-6.2497e-07 4.68116e-06 -3.81558e-07
2.18219e-06 2.68226e-06 -2.39491e-07
2.03878e-06 3.11663e-06 -4.70285e-07
-2.52661e-08 2.04056e-07 1.87537e-07
-6.95389e-08 2.99381e-07 2.66507e-07
4.54994e-06 2.6982e-06 1.47817e-06
5.2685e-06 2.33492e-06 6.68683e-07
4.54348e-07 3.31591e-07 -3.99204e-07
1.25125e-06 5.56265e-07 -3.01337e-07
2.30441e-05 1.69442e-05 1.72165e-05
1.86613e-06 2.17212e-06 2.69869e-07
1.63315e-06 9.34047e-07 3.06924e-08
2.23704e-05 1.88206e-05 2.09563e-05
-1.08765e-06 3.65645e-07 -9.07155e-08
-1.15185e-06 4.41134e-07 -1.72067e-07
4.27889e-09 1.35989e-08 3.8038e-08
3.59538e-10 1.88171e-08 4.14803e-08
9.96784e-07 5.32008e-07 9.40731e-08
9.9462e-07 6.40774e-07 -2.93715e-08
5.90902e-08 8.31752e-08 -1.91752e-08
4.21462e-05 1.89754e-05 -2.8443e-05
4.22015e-05 1.87441e-05 -3.1083e-05
3.41403e-08 8.57127e-08 1.58967e-08
4.36002e-08 -2.25344e-08 2.90719e-09
4.48518e-07 3.82989e-07 2.31897e-07
2.26158e-07 1.43803e-07 1.03563e-07
6.50195e-07 3.53351e-07 -2.69733e-07
7.80246e-07 3.72394e-07 -3.02705e-08
-5.77658e-09 1.14814e-07 -1.08262e-08
1.21241e-07 1.5841e-07 -5.96767e-08
4.08967e-07 2.28405e-06 -7.69531e-07
1.2148e-06 9.52482e-07 3.54377e-08
8.19803e-09 -2.09504e-09 -1.11652e-08
-1.12974e-09 -7.82665e-10 1.21703e-08
2.46724e-05 6.80463e-06 7.36948e-06
2.58554e-05 8.40999e-06 1.10684e-05
-4.31759e-08 5.01992e-08 -1.03406e-07
-2.89135e-08 6.50324e-08 -1.2689e-07
9.40963e-07 9.14188e-06 2.19717e-06
1.26351e-07 1.53844e-07 -2.18079e-07
1.23741e-07 1.78457e-07 -2.34961e-07
4.34245e-08 1.53249e-07 1.76032e-07
9.04215e-08 2.4481e-07 2.74863e-07
2.25322e-06 7.05422e-07 -3.69662e-07
-5.83572e-07 6.2188e-06 9.95817e-07
-2.18583e-06 3.82467e-06 6.30364e-07
7.48295e-07 1.35257e-07 -2.25917e-07
2.63125e-07 5.9323e-07 3.6562e-07
3.17876e-07 8.94767e-07 5.27215e-07
-6.30724e-08 8.343e-08 -1.35728e-07
-6.17236e-08 6.0809e-08 -1.00742e-07
1.2254e-07 2.30855e-07 -1.67564e-07
2.71954e-08 1.45803e-07 -9.93953e-08
-2.66346e-05 1.594e-05 -2.26702e-05
-2.90017e-05 1.45734e-05 -1.85726e-05
2.5744e-06 1.14598e-06 1.49712e-07
2.25225e-06 1.30676e-06 -1.97796e-08
-6.1053e-07 1.66661e-07 -1.24917e-08
-1.43232e-06 4.41872e-08 4.33046e-07
-1.22996e-06 1.16115e-06 -1.81455e-07
9.53948e-07 1.00727e-06 8.48893e-08
2.7559e-07 2.76369e-07 3.68518e-08
4.50254e-05 2.77659e-05 4.07522e-05
-6.21637e-06 3.40707e-06 1.93786e-06
5.38352e-05 2.46428e-05 3.79393e-05
-2.55654e-09 7.88021e-09 -9.45786e-09
-1.68968e-09 6.14543e-09 -7.06487e-09
0.000117101 3.00304e-05 6.27156e-05
0.000103981 3.39542e-05 6.56303e-05
-7.48919e-10 -5.23629e-10 1.35612e-09
-1.28892e-09 6.4782e-10 2.70428e-09
3.83745e-07 5.47304e-07 -3.99812e-08
3.38874e-07 5.97856e-07 -1.06989e-07
3.65587e-05 2.72554e-05 -3.24085e-05
4.01749e-05 2.62095e-05 -3.32126e-05
1.92774e-07 7.64328e-08 -1.00082e-07
-4.08846e-09 -1.72938e-09 6.8499e-09
2.37803e-07 1.87821e-07 -1.92107e-07
1.31243e-08 1.25611e-07 -1.02711e-07
2.21026e-07 3.57463e-08 -8.1113e-08
1.85736e-09 1.33069e-07 3.63773e-08
5.30932e-07 2.83612e-07 1.13351e-07
5.74042e-07 3.09338e-07 4.08664e-08
9.91818e-08 1.39437e-07 1.31912e-07
8.88306e-08 3.82095e-09 -5.31396e-08
2.3389e-06 3.71107e-06 -2.76553e-07
2.68926e-05 4.15209e-06 -2.08952e-06
-3.30634e-08 2.76892e-07 7.92397e-08
-6.58333e-08 3.73869e-07 1.03739e-07
2.35324e-05 3.89987e-06 -4.12069e-06
2.53976e-05 4.26829e-06 -4.33829e-06
4.67096e-08 9.19194e-08 -2.75559e-08
6.50274e-08 1.82656e-07 -3.7102e-08
4.69534e-05 3.7904e-05 7.08147e-05
5.6251e-06 3.29539e-05 5.52254e-05
0.000189125 7.79452e-06 2.33874e-05
0.000172077 9.16513e-06 2.26961e-05
6.56114e-06 3.05227e-05 4.97799e-05
2.93165e-07 2.17887e-07 2.76554e-09
8.29916e-07 4.51633e-07 -1.39545e-07
1.02189e-07 1.75726e-07 -4.9363e-08
7.49761e-07 5.6986e-07 1.28621e-07
6.86541e-08 2.01394e-07 -5.94032e-08
8.10999e-08 1.69638e-07 3.90531e-09
4.14744e-07 -1.65895e-07 3.83265e-07
4.29839e-07 3.17779e-07 -2.70834e-07
3.95696e-07 4.00803e-07 -3.37398e-07
5.20503e-05 1.61604e-05 2.70349e-05
5.60064e-05 1.51081e-05 2.59812e-05
6.82725e-07 -2.83685e-08 4.59854e-07
5.09693e-07 2.8723e-07 1.83735e-08
-8.01792e-08 3.79792e-08 3.30139e-09
-1.11248e-07 6.01722e-08 2.04056e-08
4.23486e-05 4.32845e-05 6.48468e-05
1.8125e-05 3.944e-05 5.53567e-05
7.44062e-07 4.18854e-07 2.72132e-07
9.10045e-07 3.47849e-07 2.84695e-07
2.05451e-07 1.58977e-07 8.86168e-08
3.20948e-07 3.70269e-07 1.66498e-07
9.93685e-08 9.60504e-08 -1.28382e-07
1.124e-07 7.47084e-08 -1.09415e-07
1.39409e-09 1.01725e-08 1.39959e-09
9.79125e-10 1e-08 1.81863e-09
8.58236e-08 6.14132e-08 -9.3427e-08
3.48025e-09 2.38423e-09 -8.28e-09
-1.14966e-09 4.4578e-09 -5.00346e-09
2.80965e-05 1.30993e-05 -1.41555e-05
7.61365e-07 6.00974e-07 2.3695e-07
7.87333e-07 5.67936e-07 1.06431e-07
2.44088e-05 9.38292e-06 -1.04921e-05
2.74189e-05 1.29975e-05 -1.58933e-05
3.98899e-09 1.33358e-08 -2.87983e-08
4.27746e-10 7.12419e-09 -1.46663e-08
7.14437e-08 2.67839e-07 2.04535e-07
2.06362e-07 2.48613e-07 2.08797e-07
1.54368e-06 1.06488e-06 7.99804e-07
1.91823e-06 9.57616e-07 5.14132e-07
1.86305e-09 6.89572e-09 6.11757e-09
5.75537e-10 7.38673e-09 7.24524e-09
3.19174e-07 2.27991e-07 -4.73014e-08
5.4259e-10 2.91561e-09 5.88336e-09
-2.78365e-08 1.9536e-08 -9.66352e-09
-2.11232e-08 9.69499e-09 3.3971e-08
3.01028e-07 2.30465e-07 5.93572e-09
3.88114e-07 3.02304e-07 1.78768e-08
1.27456e-08 -1.7831e-09 2.76978e-08
-1.92272e-09 1.14337e-08 4.17477e-08
2.10747e-09 -5.48717e-09 -1.5369e-08
-2.11582e-06 2.37946e-07 6.61883e-07
5.08404e-08 -1.99502e-08 -1.34399e-09
-2.19702e-06 3.02168e-07 4.1183e-07
5.73695e-07 1.53633e-06 2.58434e-07
4.97094e-07 1.0432e-06 1.68399e-07
1.14688e-07 3.16751e-07 1.66893e-07
1.48477e-06 5.12145e-07 -1.82851e-07
4.7271e-07 2.11387e-07 1.41757e-07
4.84284e-07 2.94342e-07 1.40407e-07
1.59068e-07 3.43133e-07 1.62219e-07
-3.97455e-08 1.98944e-07 1.9049e-07
-1.91076e-08 2.10676e-07 1.85197e-07
4.17599e-08 1.09669e-08 -4.62445e-08
6.83528e-08 6.29398e-08 -5.14556e-08
2.17601e-07 1.19725e-07 -1.23798e-07
5.50272e-07 8.59979e-06 1.50516e-06
7.55383e-09 9.70638e-09 3.7077e-08
2.49401e-09 8.40197e-09 2.56778e-08
1.03794e-06 7.32179e-07 -1.64587e-07
8.09569e-07 1.0175e-06 -2.62938e-08
1.67779e-06 1.04874e-06 -5.37887e-07
1.24849e-06 8.35094e-07 -4.11189e-07
1.02916e-06 9.84957e-07 3.59175e-07
3.4564e-07 2.91963e-07 -1.87043e-09
3.1972e-07 2.59526e-07 7.45033e-08
2.7283e-07 2.15492e-07 -2.00627e-07
-1.16784e-08 1.94395e-08 8.32005e-09
-8.00797e-09 2.43178e-08 -1.17506e-09
-8.39766e-09 2.38594e-08 -3.3156e-09
7.23202e-08 2.80014e-08 -7.4971e-08
1.40066e-08 5.39704e-08 -8.23693e-08
7.2789e-08 1.10018e-07 -1.75943e-07
-1.06049e-08 6.3904e-08 -7.03537e-08
1.27361e-07 1.97473e-07 1.46147e-08
3.35267e-06 5.63383e-06 -3.50959e-07
2.64299e-08 2.04246e-08 6.67962e-08
1.936e-08 1.98818e-08 6.8359e-08
1.18997e-06 2.68978e-07 1.708e-07
3.17818e-06 1.0557e-06 -4.29058e-08
1.37365e-07 2.41864e-07 -9.77909e-08
1.84296e-07 1.42672e-07 -9.33515e-08
1.13673e-07 5.89096e-07 4.98987e-08
-5.13845e-08 9.95075e-07 8.81876e-08
2.17725e-08 7.26281e-08 8.03094e-08
1.63268e-08 7.37878e-08 7.32026e-08
2.11297e-08 2.24127e-08 -4.10944e-08
1.86791e-08 3.53938e-09 -1.61766e-08
1.62075e-08 3.24594e-09 2.31724e-08
1.82936e-08 1.20617e-08 3.90938e-08
1.50962e-08 1.68376e-08 -3.35349e-08
6.68272e-06 3.74201e-06 1.33344e-06
2.43318e-05 1.75155e-05 -1.41418e-05
-4.49318e-09 2.27448e-07 2.84293e-07
-1.19641e-07 1.84327e-07 2.22166e-07
7.93399e-07 1.58005e-06 -2.6783e-07
6.79938e-07 1.89768e-06 -2.27799e-07
0.000139237 9.8195e-06 2.40848e-05
0.000126474 1.12885e-05 2.8323e-05
2.25208e-05 1.5263e-05 -1.22864e-05
6.74897e-06 4.80207e-06 2.29668e-06
-8.91271e-07 7.28896e-07 -1.81948e-07
-9.2716e-07 6.43268e-07 -1.73328e-07
4.45788e-06 3.7076e-06 1.59123e-06
2.13183e-05 1.53659e-05 1.47683e-05
1.93805e-05 1.2509e-05 1.17061e-05
1.37987e-09 -6.27162e-09 2.16068e-08
-2.07572e-08 1.50788e-08 -1.25397e-08
-1.38464e-07 6.74781e-08 6.43821e-08
1.82325e-05 1.24896e-05 1.06981e-05
-2.11066e-07 6.30208e-08 -5.12755e-08
-1.65452e-07 7.79715e-08 2.24217e-08
-4.47191e-07 2.79743e-07 -2.05397e-07
-2.74654e-07 1.59784e-07 -1.24058e-07
-2.0602e-07 7.88273e-08 -1.12016e-08
1.27769e-06 5.15564e-06 -2.07449e-07
9.58957e-09 5.47581e-09 -6.21797e-09
9.98532e-09 7.36513e-09 -1.10398e-08
-1.30808e-08 3.19065e-08 -1.40654e-09
7.97939e-09 2.2288e-08 1.74316e-08
-5.47394e-09 1.39877e-08 9.17297e-09
-1.53508e-08 2.81619e-08 1.07534e-08
-1.89414e-08 2.45249e-08 5.75801e-09
-3.12681e-08 5.43076e-08 -5.26577e-09
4.34166e-08 2.74885e-09 -4.83963e-08
2.64515e-07 3.10362e-07 4.06108e-08
2.68156e-07 1.52568e-07 -1.0219e-07
1.97953e-07 1.8654e-07 1.78814e-08
-2.24225e-08 9.46512e-08 -1.28576e-08
9.58677e-07 4.38849e-07 1.77578e-08
-4.20149e-06 4.03807e-06 2.58763e-06
-3.00808e-06 4.1193e-06 2.52677e-06
-1.09306e-06 6.67509e-08 3.86382e-07
-9.49986e-07 -4.19746e-08 5.86772e-07
1.47043e-06 6.88615e-07 -2.34906e-08
1.34584e-06 2.59146e-07 4.50307e-07
-1.50427e-08 1.00861e-08 5.93426e-08
-5.57653e-07 -1.69286e-08 -5.05098e-07
-9.57233e-07 7.23127e-08 -4.61984e-07
-4.50101e-09 8.51956e-10 5.42846e-09
-1.17619e-08 6.60499e-09 1.30346e-08
-1.1051e-08 -6.23143e-10 -1.55895e-09
1.61728e-07 4.84362e-07 1.25252e-07
1.31062e-07 4.71367e-07 9.81364e-08
-2.66822e-08 2.21428e-08 2.15288e-08
3.38296e-07 2.36461e-07 -2.63303e-07
-4.13585e-08 2.77724e-07 1.29025e-07
-1.43924e-06 2.17703e-06 3.71611e-07
-1.37811e-06 2.0464e-06 2.96421e-07
-1.43669e-07 2.55189e-07 1.29987e-07
-7.077e-08 1.01717e-06 -7.24194e-08
-8.88731e-09 1.08249e-06 -1.05982e-07
3.16804e-07 5.76613e-07 -3.44371e-08
-2.56776e-08 2.6759e-08 3.361e-08
1.5856e-06 2.44598e-06 -8.33809e-07
1.75731e-06 1.81928e-06 -3.82029e-07
-4.4253e-08 2.01353e-06 -9.2454e-07
-3.27269e-08 3.77797e-09 -8.64776e-09
3.28251e-05 2.04481e-05 2.88742e-05
2.65077e-05 1.99329e-05 2.61499e-05
8.43808e-09 -4.46956e-10 -1.1234e-08
4.98091e-09 7.74511e-08 3.50848e-08
3.8122e-05 2.15506e-05 -2.76359e-05
1.70857e-08 1.3378e-07 6.56062e-08
2.549e-08 2.80292e-08 5.68786e-08
4.19316e-08 2.38305e-08 5.70077e-08
3.61661e-07 3.62104e-07 -2.92856e-07
2.7579e-08 2.41499e-08 4.48242e-08
2.84743e-06 5.53472e-06 -9.71254e-07
3.51645e-06 4.32019e-06 -6.41738e-07
1.4201e-08 6.68504e-08 8.72479e-08
-1.22341e-08 7.17176e-08 2.09012e-08
-2.6192e-08 1.38879e-08 2.92302e-08
-1.37575e-08 3.1876e-10 8.14535e-09
6.91053e-06 1.46491e-06 -4.03448e-07
8.6809e-06 2.14405e-06 -3.33938e-06
-2.42507e-06 2.08179e-06 1.26059e-07
-1.80347e-07 4.07215e-07 4.71864e-08
2.24163e-06 8.96117e-07 -1.88387e-07
-6.02604e-08 7.98931e-08 7.8682e-09
-2.50978e-08 9.35095e-08 -5.09328e-09
-2.04261e-06 1.86748e-07 6.05207e-07
-2.29879e-06 5.46918e-07 -4.2552e-07
-9.98465e-07 2.39243e-07 -9.86628e-08
-1.17279e-06 1.42116e-07 -3.93681e-07
-7.2198e-08 9.65387e-08 -6.18605e-08
-4.66448e-07 3.95794e-07 3.43404e-09
4.79241e-07 1.61779e-07 -2.48347e-07
4.79557e-07 1.79597e-07 -2.00065e-07
-4.89454e-07 4.10458e-07 9.8268e-09
6.75714e-07 4.74139e-06 7.21893e-08
1.65987e-06 4.10283e-06 1.15839e-08
1.12431e-06 3.74521e-06 1.69231e-07
1.36531e-08 1.54624e-08 5.58858e-08
7.02994e-06 1.51086e-06 1.92604e-07
7.79722e-06 1.66537e-06 -1.04719e-06
-1.3858e-06 6.3842e-06 -1.11758e-06
1.31266e-08 -2.16396e-09 1.55774e-08
1.88531e-06 4.24589e-06 5.53562e-08
3.82523e-06 7.21054e-06 3.7294e-06
4.55901e-06 5.68856e-06 2.49178e-06
8.09326e-06 7.01367e-06 3.31303e-06
1.14143e-07 4.13966e-07 7.17929e-08
8.47201e-08 5.29226e-07 5.32314e-08
-3.30052e-07 1.51091e-06 1.74342e-07
-9.48285e-08 8.58218e-07 1.04672e-07
6.57351e-07 2.87164e-07 1.41216e-07
3.58249e-07 5.20524e-07 1.08329e-07
1.8562e-06 6.2951e-07 -2.39402e-08
2.39659e-06 9.81128e-07 3.24892e-07
-3.85239e-08 9.21606e-10 2.96529e-08
-3.29255e-08 -2.63685e-09 1.51884e-08
7.4526e-08 1.7808e-08 -7.92554e-08
5.88827e-08 7.89184e-09 -4.81113e-08
-2.22106e-08 7.37394e-08 1.11064e-07
1.58089e-08 6.0269e-08 1.18101e-07
-1.52885e-08 6.2257e-08 1.03756e-07
2.62156e-07 1.00202e-07 1.99389e-07
3.8913e-07 2.35853e-07 -5.74058e-08
5.4542e-07 2.56716e-07 1.37571e-07
2.30429e-08 7.32786e-08 -8.00101e-08
1.24047e-08 7.47629e-08 -7.63282e-08
-3.35176e-08 5.63248e-07 -3.27191e-07
3.84047e-08 3.31172e-07 -1.97704e-07
-6.44907e-07 3.16112e-06 -5.62208e-07
-1.20025e-06 2.4106e-06 -4.38071e-07
-1.41044e-08 6.16833e-08 -5.46179e-08
2.01899e-07 5.76685e-10 -4.108e-08
-2.11756e-08 5.20598e-09 1.21534e-08
1.31356e-08 3.23421e-08 -5.00837e-08
-1.34889e-06 3.87041e-06 -1.68392e-07
-7.5064e-08 3.7148e-07 -2.75898e-07
-1.37027e-07 3.23295e-07 -2.28064e-07
1.93222e-05 2.54052e-05 2.51009e-05
1.60116e-06 8.17558e-07 1.16184e-06
7.3986e-05 6.4035e-06 6.78714e-06
8.2537e-05 6.61023e-06 -3.20499e-06
6.85968e-05 6.74332e-06 -1.05384e-05
7.99728e-05 6.3977e-06 -5.34436e-07
1.81194e-06 8.03805e-07 1.0604e-06
1.85662e-05 2.15855e-05 2.06032e-05
1.70003e-05 2.16669e-05 1.90894e-05
4.46889e-08 2.83673e-08 -7.94054e-08
-2.50853e-08 5.59691e-09 -2.75455e-08
-1.21794e-08 4.62069e-09 -5.07239e-08
5.02141e-08 1.76839e-08 -6.57228e-08
2.26279e-08 8.05009e-09 -3.1992e-08
1.35653e-07 2.37915e-07 8.41147e-08
1.01651e-07 3.49894e-07 2.07868e-07
-6.61803e-07 9.1827e-08 2.32775e-07
-1.74635e-05 7.90376e-06 -7.92218e-06
-1.87216e-05 7.73535e-06 -8.1441e-06
-8.29202e-07 8.1301e-07 -2.25439e-07
2.06911e-07 1.99362e-07 -1.61624e-07
3.5903e-07 3.76462e-07 1.08806e-07
1.84217e-07 5.01994e-07 -2.66464e-07
1.73595e-07 2.12288e-07 -1.42551e-07
1.26947e-07 4.61532e-09 7.56412e-08
1.0406e-07 5.50203e-08 1.329e-07
6.57039e-08 3.30718e-08 8.59519e-08
1.12385e-06 1.51412e-06 -1.02722e-07
1.24812e-06 1.70695e-06 -1.05638e-07
-2.94304e-05 1.63976e-05 -2.57362e-05
-1.04429e-07 2.1905e-07 4.36246e-09
3.48713e-08 6.90719e-09 2.30973e-08
-2.9204e-08 6.96806e-08 1.26646e-07
5.97076e-07 1.81002e-06 -1.92006e-07
6.29475e-07 1.33589e-06 -1.63443e-07
-5.94915e-08 9.84567e-08 -2.27828e-09
1.14012e-07 1.81851e-07 4.63968e-09
-1.16835e-07 1.74808e-07 -1.32489e-08
-1.72989e-05 1.63244e-06 1.33147e-08
2.85563e-09 1.15581e-07 -5.5848e-08
-4.12199e-09 9.85915e-08 -4.9017e-08
-1.13097e-05 4.22345e-07 -1.21138e-06
7.69576e-07 7.0012e-07 -2.37955e-07
-1.47323e-05 3.05829e-06 2.3717e-06
-1.10035e-08 1.00354e-07 2.5384e-09
1.53971e-06 5.82441e-07 1.06579e-07
1.71584e-06 4.57739e-07 4.35882e-07
2.34622e-09 6.58613e-08 -3.37284e-08
-8.87861e-09 7.82429e-08 2.40341e-08
1.11589e-07 1.9872e-07 -1.17857e-07
1.77053e-08 -1.06351e-08 -1.70225e-08
1.74737e-08 1.4864e-10 -3.57736e-08
4.3624e-07 4.47873e-07 -1.15351e-07
5.39393e-07 3.77577e-07 6.77009e-08
2.52226e-06 1.95655e-06 7.62005e-07
2.95893e-05 2.23265e-05 2.85651e-05
2.30553e-05 2.21427e-05 2.64662e-05
1.79739e-08 8.22137e-10 2.70673e-09
-1.55965e-08 2.32317e-10 -1.59991e-08
2.36296e-05 2.20033e-05 2.45227e-05
3.51692e-07 9.44643e-08 1.51158e-07
1.81749e-07 1.40084e-07 1.64331e-08
-2.11576e-08 5.487e-08 -1.07226e-09
-1.06289e-07 2.07769e-07 1.86619e-07
-9.40521e-08 2.2828e-07 1.875e-07
-3.87852e-07 3.41342e-06 2.92403e-07
-1.0229e-07 4.35e-08 4.0766e-08
-2.41806e-08 1.23042e-07 9.72006e-08
-1.0532e-05 2.77902e-05 -4.72852e-05
-7.78441e-06 2.73751e-05 -4.23467e-05
-5.38567e-07 3.40108e-06 3.05327e-07
1.05987e-06 1.16585e-06 -2.22246e-07
-1.71304e-07 2.92744e-06 3.89877e-07
-2.57927e-09 -3.77295e-09 -2.18687e-08
4.06574e-07 7.84614e-07 -1.80085e-07
7.82078e-06 3.10429e-05 -3.05712e-05
4.40209e-07 6.0388e-07 -7.91652e-08
8.79482e-07 5.86804e-07 5.83979e-07
5.79224e-08 1.02279e-07 -5.12002e-08
-3.20667e-08 4.64311e-08 3.02256e-08
9.25115e-09 2.2915e-09 -3.97149e-09
-4.2714e-09 3.42266e-09 -2.18949e-08
-2.02153e-05 1.78478e-05 -1.75516e-05
-2.96737e-08 6.13719e-08 9.6259e-08
1.21214e-06 4.64427e-07 -1.39919e-07
-5.59481e-09 -2.75564e-09 1.97162e-09
6.96137e-08 1.33301e-07 1.46133e-07
2.25768e-08 7.67142e-10 2.28437e-08
1.26071e-05 2.22495e-05 -1.65544e-05
2.53667e-07 8.98069e-08 -1.03503e-07
1.27801e-05 2.27144e-05 -1.88379e-05
0.000275635 -1.03781e-07 -3.03605e-05
0.000254553 2.60668e-06 -3.74172e-05
1.6307e-08 9.86541e-08 9.48726e-08
0.000163141 2.283e-05 -6.68193e-05
1.44172e-08 1.1119e-07 9.11883e-08
-5.49606e-08 6.89626e-08 1.21055e-08
-6.33399e-08 5.04041e-08 -6.62353e-09
4.38078e-08 1.53044e-07 1.29491e-07
9.89964e-07 1.0254e-06 -3.2466e-07
1.44937e-08 7.88267e-11 -9.09672e-09
3.37191e-07 2.58513e-07 -8.25978e-08
3.25629e-05 3.05266e-05 -3.34459e-05
3.38728e-07 1.83269e-07 7.48412e-08
3.4304e-07 1.48236e-07 1.33754e-07
3.47968e-07 1.75016e-07 1.13529e-07
3.16953e-05 2.22452e-05 3.0971e-05
-9.22174e-08 4.95119e-08 -1.82974e-08
-8.08961e-08 4.26005e-08 -4.6584e-08
-1.75784e-07 1.04182e-07 -9.41673e-09
-3.07281e-07 2.5691e-07 -6.65598e-08
3.53937e-05 2.56742e-05 3.53842e-05
7.11496e-06 3.88022e-06 -1.22572e-06
3.23032e-06 4.21464e-06 -1.91953e-06
3.59316e-06 4.33641e-06 -1.83035e-06
0.00018091 6.32116e-06 -2.28565e-05
0.000169048 7.11882e-06 -2.07225e-05
4.24693e-06 3.88415e-06 -1.57863e-06