# vtk DataFile Version 2.0
S, Created by Mohamad Ibrahim Cheikh
ASCII
DATASET UNSTRUCTURED_GRID
POINTS 10490 double
-223.577 20.3396 -34.7911
-223.727 23.2869 -32.7659
-130.488 -29.2943 69.2907
-194.382 -37.8828 -41.0233
-207.466 29.5125 40.0416
-235.874 27.4019 13.474
-191.273 -39.7114 -41.0836
14.3684 -3.08726 87.802
-191.051 39.236 -41.6626
-193.389 36.9446 -42.4294
-251.146 3.21388 -3.38165
-251.006 5.46361 -0.715321
-204.324 29.3064 -42.1171
18.5579 -1.43935 87.7483
-201.226 30.3661 -43.1792
-151.261 68.7537 -14.6871
-148.45 69.9661 -12.2764
241.381 21.761 -11.7084
240.378 24.345 -8.782
39.0076 73.0377 -47.1509
42.8576 72.3047 -47.866
45.3656 -3.16438 -86.4987
49.2323 -1.48511 -86.2847
-145.562 -45.4902 -55.5026
-142.057 -46.9142 -55.4291
-191.797 -27.361 49.9164
-189.472 -30.0397 49.4612
-64.3406 -67.832 51.342
-66.4846 -66.0131 53.3395
-121.223 -41.6752 -64.8695
-205.48 44.6121 24.1762
-208.425 41.8767 25.9197
-64.8729 -22.5313 81.9823
-61.2477 -23.8971 81.9369
44.2734 4.24561 86.5216
-201.398 -44.9169 27.578
-50.4573 82.9336 -23.5438
-47.173 82.653 -25.2988
-109.54 -78.4117 -11.2496
-105.514 -79.2425 -10.0788
-195.484 42.6468 35.3087
-200.946 -43.0025 30.8403
-54.4217 -15.2688 84.5474
3.48631 8.3494 87.5945
226.254 36.0728 -13.2456
223.493 37.2796 -15.4578
-146.97 22.4401 -67.7933
-143.812 23.717 -68.1867
-167.023 -43.0214 -49.7772
-163.504 -43.476 -50.8019
-215.265 -7.1552 -44.9386
-215.165 -3.15916 -45.453
-105.614 -17.5696 77.9081
-104.076 -21.1076 77.2808
-247.96 -12.5207 7.72454
-247.223 -12.2228 10.5723
-226.223 -18.8442 33.5159
-129.021 -40.833 -63.5503
238.446 4.07584 -27.6838
236.191 2.11821 -30.1597
30.63 -3.67066 -87.2678
26.6624 -1.91853 -87.4831
-224.96 -22.5381 32.2519
-47.6614 -75.8707 41.3464
-235.553 -26.7703 15.3058
-109.985 51.3295 -60.2352
-237.92 -25.2883 13.1994
-16.8498 -1.36859 -87.7916
-20.0156 -3.9327 -87.6327
25.2883 7.67107 -87.2173
27.2978 3.82216 -87.3966
25.4044 1.80108 -87.5314
45.9446 -6.27853 -86.291
-242.159 -16.9739 16.6272
249.587 -5.36871 -9.4094
249.11 -2.30242 -11.881
-169.133 48.175 43.8283
30.4779 -13.4474 -86.3101
-165.504 47.9495 45.7305
-244.371 -14.4424 14.9736
243.986 6.92822 20.1945
244.544 3.56464 20.2423
-218.529 -34.2524 26.909
-142.145 -69.4108 21.2701
-139.629 -70.7397 18.7869
-221.095 -32.0559 27.0488
-157.97 -59.7992 33.3598
-205.033 32.4692 39.2806
-154.318 -61.363 32.6038
21.3183 7.4742 87.3642
-119.021 18.578 75.263
-116.355 20.6736 75.2268
25.5774 -59.0281 64.6497
29.1112 -57.6549 65.6974
-134.437 55.1158 -49.9352
-136.702 52.6153 -51.8431
-177.082 57.926 23.4389
-176.666 59.4049 19.8463
-69.3156 65.7092 -53.2735
-62.707 16.974 -83.5133
-66.3286 16.9332 -83.1783
-65.8025 67.3056 -51.8058
124.438 57.754 50.1264
121.004 58.3613 50.4514
-132.441 -69.8468 26.7943
-132.815 -68.0006 30.9882
-188.842 35.1319 46.3005
-185.095 37.3054 46.4524
-232.725 13.1759 -30.6505
-58.7697 75.7355 39.8156
-60.0784 77.2436 36.5448
-231.926 16.8002 -29.6013
-175.27 -46.9577 -42.1658
-178.779 -11.2216 60.8683
-181.793 -8.37245 60.2305
-195.805 53.7613 12.6402
-198.356 52.075 14.6686
-195.137 -6.40127 -55.146
-196.107 -2.36055 -55.0453
-155.747 25.1051 64.3733
-159.435 22.507 64.2287
-196.21 -54.5516 -7.39889
-193.182 -56.048 -5.7963
-90.5369 75.3994 -32.4865
-86.5235 75.8217 -32.8408
-39.2324 -78.9663 -36.3301
-42.7331 -77.6531 -38.6061
-35.6794 20.7904 -84.5926
-119.247 -59.0742 -50.1328
-116.052 -58.386 -51.8283
-103.564 -58.9082 54.4121
-107.458 -57.2149 55.2876
-176.023 46.924 -41.8178
26.8937 14.1418 -86.345
23.7383 15.8652 -86.1586
-175.587 44.5899 -44.5097
-89.4394 -39.5781 72.0986
-93.3076 -38.4335 72.1176
-1.70856 -75.0107 -46.0112
2.6305 -75.2475 -45.6176
-158.019 -33.1914 -59.8768
-154.736 -36.6289 -58.9148
24.8061 73.2916 47.927
27.3516 71.3001 50.6824
-166.522 38.8384 53.2977
-168.94 36.4686 54.0349
126.632 60.2671 46.3533
124.967 62.2384 44.2541
55.896 20.2785 83.3682
-158.129 12.6687 67.247
-155.54 9.86294 68.4456
-42.9377 74.2774 -44.7342
70.8117 53.1454 -65.6175
-40.1061 75.898 -42.2678
222.064 -27.8281 -30.5327
225.276 -26.0122 -29.2253
-14.9492 80.5493 -35.0493
-17.9644 79.3724 -37.4768
247.477 -7.06408 13.9945
245.671 -9.07238 16.5073
-182.884 19.8672 57.0476
-181.344 22.7115 56.5862
-54.6729 69.3362 50.7004
-52.3717 71.1953 48.3677
-221.668 26.3889 -32.1212
245.288 -12.7014 14.713
-123.331 -44.6557 -62.3509
-128.466 -46.8976 -59.364
-126.778 -44.246 -61.7941
-219.064 -11.0504 41.7923
-206.356 49.8856 -6.47866
-208.04 48.5237 -9.51671
-173.56 -35.1361 53.1175
-196.131 -34.8661 -42.647
-56.7894 10.7243 85.0538
-98.7899 80.7839 4.80774
-149.826 -21.4619 67.3432
-153.217 -21.7055 66.3232
-105.01 79.9317 2.20282
-102.615 80.167 5.29741
-208.259 -1.82328 -49.3018
-211.7 -0.422221 -47.5063
7.09952 77.3531 -41.8847
8.17082 75.517 -45.0889
-11.995 86.3037 -16.6747
-16.1599 85.6484 -19.4004
11.9303 74.8811 -46.0368
-209.312 34.9127 -34.0773
-209.409 37.4925 -31.1365
-243.667 12.2945 -17.9921
-205.978 40.1047 -30.6801
-237.95 16.7341 23.0635
-240.122 13.5393 22.3945
-198.661 34.6907 41.3362
-44.0813 -51.853 -69.4072
-47.9272 -52.1694 -68.8558
-63.2956 78.8582 -32.1697
-60.0848 79.82 -30.5086
-198.889 37.6901 38.4773
-195.368 39.9912 38.3627
193.192 51.8486 -22.0509
191.205 51.6137 -24.5771
-16.8347 73.688 -47.7429
-15.9527 71.866 -50.4788
-160.698 -8.66793 67.136
-158.24 -5.13641 68.2053
-159.175 -12.1813 67.0346
-155.58 -13.9412 67.7216
-181.215 -39.3661 -46.6245
-187.066 -34.8926 -47.3523
234.201 -8.19792 31.0077
231.367 -8.8394 33.3482
-185.722 -37.804 -45.7374
-220.423 -36.3319 -21.8076
-223.2 -33.1947 -23.2995
-73.5436 69.9329 46.8103
-199.233 43.3842 -31.656
-202.396 40.5288 -32.957
-78.3874 72.1854 42.2017
-74.4697 72.1012 43.2024
-199.862 -47.1002 -25.2009
-196.405 -49.1625 -24.5824
-156.236 -38.5577 57.1734
-155.211 -34.5996 59.9789
-162.877 56.2828 -36.4461
-159.721 58.1092 -35.2709
245.94 -16.0776 8.95247
246.756 -13.0532 10.9097
-202.184 25.1287 -45.9107
246.469 -16.6405 5.45947
-222.675 -40.7291 -3.81047
-219.564 -42.6763 -4.53544
-225.906 36.4591 -12.9114
-224.078 36.2198 -16.8752
-228.9 -34.8682 10.6505
-231.376 -33.577 7.8923
-225.472 -37.7617 9.69435
119.531 74.8303 19.8793
-172.162 -51.1027 -38.7774
115.334 75.6466 19.8248
47.926 12.1964 -85.5221
51.5117 10.7906 -85.4558
-180.219 -22.1687 57.2378
-179.913 52.3329 -32.2855
-165.442 0.852033 66.2739
-168.565 2.83123 65.2474
-181.017 -17.4102 58.5594
36.4515 -59.7506 63.334
37.7861 -57.2035 65.5511
-159.984 -59.9391 -31.9017
-182.766 -21.7967 -56.3855
-184.307 -18.0279 -57.0975
-11.9225 15.2535 -86.5675
-188.59 -54.9976 19.1023
-192.466 -53.1209 19.6707
-145.915 9.35161 -71.0623
-143.72 12.1617 -71.1844
-174.33 52.4448 35.6759
-173.403 50.737 38.5805
-187.156 39.7392 -43.3171
-231.49 33.5026 -7.79804
-229.085 35.976 -4.95785
-234.897 30.8761 -5.94549
241.404 7.72132 23.4446
239.892 10.8373 24.1019
240.609 13.4024 21.8297
-138.877 -61.8295 -39.4945
-138.123 -60.1615 -42.2952
-141.494 -58.248 -43.5896
-200.351 -41.163 -33.6925
-218.713 20.12 -38.5056
-52.6119 9.16928 85.5631
-56.6791 -81.1826 27.5695
-60.1937 -81.4603 25.7801
-152.583 56.1748 41.6894
-153.31 58.0797 38.6412
-189.41 -9.89262 -57.0421
-186.062 -8.87652 -58.5389
64.9156 -8.69659 84.5721
67.8934 -7.05307 84.4388
-196.834 -37.2179 40.1921
-200.414 -34.6083 40.3576
-180.668 -48.245 -37.6854
-174.531 -52.0915 -36.0707
-215.618 -38.5088 23.8565
-218.655 -36.4146 23.7612
-178.254 -50.9814 -35.4224
-121.403 48.0279 -60.2732
-70.7243 60.0233 59.4038
26.871 -68.2959 54.6925
24.8059 -66.5839 56.8793
-87.1766 -8.55541 -82.0997
-83.9988 -6.24205 -82.7115
-28.3566 86.1549 -14.9291
-32.3632 85.7193 -16.37
-74.5735 60.4775 58.3576
-117.468 49.0925 -60.3701
67.0728 -10.952 -84.1027
63.3229 -11.5604 -84.3768
-122.22 44.8206 -62.5001
-75.6202 64.4947 -53.7059
-79.1904 64.5971 -52.9475
-210.937 -46.4388 -11.8315
-207.911 -47.2771 -14.7164
-70.3867 -66.904 51.5878
-81.9724 62.0981 -55.3638
181 57.5741 -20.4518
187.789 54.7443 -20.7263
-57.9969 -57.7625 -63.2114
-60.2547 -59.9457 -60.877
185.025 56.5076 -18.9619
-52.1912 5.04664 85.9363
170.803 -60.9398 -21.4147
166.658 -61.8362 -22.7993
-242.161 -11.23 20.9366
-241.443 -7.71392 23.3975
231.622 25.8613 -22.5151
229.371 25.1809 -25.8601
225.984 27.6881 -26.9256
-235.385 -18.9682 -24.5117
-234.849 -16.6286 -26.739
-226.061 27.1702 -27.3707
-222.945 28.4651 -29.1277
-220.763 31.3806 -28.1503
-250.634 -7.29275 -0.178764
-176.026 45.3172 43.5526
58.5803 51.3428 -68.4674
59.6883 48.516 -70.3848
128.084 68.3818 32.5482
131.58 68.3034 30.9672
-176.9 47.6316 40.5454
-181.005 46.7602 39.3231
18.7046 -86.4177 15.269
142.023 69.3639 -21.5216
141.076 68.3977 -25.0815
23.2384 -86.1703 15.8922
181.098 -44.0243 42.3152
25.6365 -86.6619 12.3796
-189.022 21.6549 -53.8582
-189.443 17.9086 -55.04
-212.327 -45.014 14.0799
-120.841 -46.9981 -61.2158
-24.3217 -37.2673 79.2636
52.2844 18.5807 -84.048
55.7998 16.7916 -84.1477
-25.294 -41.1169 77.2986
-119.139 -6.51209 -77.2256
-115.758 -7.72666 -77.7415
-200.042 16.4861 50.7239
-215.149 -43.2637 14.3208
-153.394 33.101 61.3806
-156.814 31.4014 61.2154
-157.699 28.2562 62.457
-79.9683 -83.4308 0.602739
-62.384 73.4453 -43.2818
-61.8481 71.3831 -46.692
-79.8044 -83.3553 -4.02133
-209.642 -18.6799 44.8808
-59.0074 72.0268 46.1503
-205.671 -19.6713 46.6709
-191.283 -46.3879 33.3549
-190.153 -45.0072 35.9375
-195.124 47.3327 29.0222
-192.216 -42.6376 37.4514
-97.6236 19.9493 78.608
-94.0114 21.0861 78.85
-195.846 -41.8709 35.9853
-247.68 -8.81046 12.4837
188.064 -42.0215 40.5963
184.929 -44.2656 39.9696
-127.018 75.5406 7.8982
-123.344 76.0883 9.58867
48.8127 1.73779 86.3091
130.442 15.6017 -73.603
-179.654 46.5452 -40.3243
198.594 13.1821 52.3606
200.49 9.43584 52.2852
113.309 74.9003 23.708
109.562 75.3607 24.3954
149.54 63.7483 -30.6975
145.707 65.3575 -29.5489
-166.876 -45.6677 -47.4241
129.834 19.3652 -72.8368
-209.792 43.7111 -21.0911
-206.932 46.1348 -19.3136
126.458 20.2177 -73.3306
-61.8759 -0.21424 85.2949
-59.1417 2.69225 85.4899
-53.8193 -1.90141 85.9405
[...]
POINT_DATA 10490
VECTORS F double
1.35671e-08 3.06505e-08 7.24296e-09
1.2288e-07 8.73453e-08 -4.0647e-08
1.47592e-07 7.17674e-07 3.37443e-07
5.64384e-08 -7.5021e-09 -2.58132e-08
2.84017e-07 2.5039e-07 -4.38406e-09
1.77737e-07 1.89676e-07 -4.80407e-09
8.21598e-08 2.48892e-08 -7.08883e-08
-1.89601e-06 2.39759e-06 1.22291e-07
9.12466e-07 6.87671e-07 1.35335e-07
9.84687e-07 6.01181e-07 -2.60167e-08
1.18732e-08 7.18914e-08 -3.96374e-08
1.03981e-08 5.60555e-08 -1.86058e-08
1.02344e-07 3.41673e-07 1.76958e-07
-2.31443e-06 3.8861e-06 1.23672e-07
1.40961e-07 1.23514e-07 6.43504e-09
3.32414e-06 7.08914e-07 -8.7285e-07
4.24853e-06 8.06782e-07 -1.6918e-06
-1.17569e-08 2.21515e-08 1.14991e-08
-1.38068e-08 2.15348e-08 1.34334e-08
-2.90132e-05 7.69548e-06 8.98185e-06
-2.86918e-05 5.44558e-06 5.08072e-06
-3.22943e-06 1.95339e-06 -2.78823e-07
-2.9435e-06 1.47468e-06 -2.31002e-07
3.03915e-08 2.11973e-07 -1.83492e-07
5.65663e-08 2.38984e-07 -2.20021e-07
1.70289e-08 1.6692e-07 9.95057e-08
2.05064e-09 1.42634e-07 8.75897e-08
-4.57382e-08 1.94844e-07 2.50406e-07
-1.91366e-07 1.5126e-07 1.57997e-07
2.46e-07 2.05308e-07 -1.88182e-07
5.48473e-07 2.48943e-07 1.11356e-07
3.68631e-07 2.72079e-07 -7.66654e-08
1.60712e-07 2.93937e-06 8.23403e-07
-2.22062e-07 1.67848e-06 4.69213e-07
-2.01029e-06 3.0042e-06 -2.14747e-08
1.52696e-08 2.86032e-08 6.02387e-08
7.75703e-05 1.29519e-05 2.52698e-05
8.35637e-05 1.49806e-05 2.98658e-05
3.97059e-08 2.92047e-10 -4.93711e-08
3.44123e-08 -2.82444e-09 -2.18957e-08
6.29292e-07 3.42248e-07 1.31758e-08
2.79794e-08 2.91564e-08 6.29734e-08
2.51369e-07 2.81368e-06 5.27946e-07
-1.61336e-06 3.75646e-06 -3.50199e-07
-2.37e-08 1.42691e-08 -1.06999e-08
-3.99401e-08 3.59696e-08 1.60527e-08
1.24429e-06 8.51501e-07 -4.84057e-08
1.11799e-06 1.48469e-06 2.27725e-07
-5.0076e-08 1.00614e-07 -6.63874e-08
-4.35144e-08 1.13046e-07 -7.95989e-08
5.18945e-08 1.41929e-07 -5.30333e-08
6.77626e-08 1.50691e-07 -4.97469e-08
9.56201e-07 2.28101e-06 6.7311e-07
1.05975e-06 2.21727e-06 7.80335e-07
-3.92857e-08 9.62349e-08 1.60032e-09
-2.75449e-08 7.27242e-08 5.22226e-09
5.96868e-08 9.62968e-08 1.03466e-07
1.75496e-07 3.49832e-08 -6.60993e-08
-1.92016e-08 1.26945e-08 -1.83788e-08
-1.8269e-08 7.86038e-09 -1.69637e-08
-2.49157e-06 3.09087e-06 -2.37072e-07
-2.29289e-06 3.96849e-06 -1.72583e-07
1.42293e-08 8.61886e-08 7.23823e-08
-3.91248e-08 5.74377e-08 9.98761e-08
-1.06311e-08 1.23213e-08 1.52117e-09
1.04634e-05 5.7233e-06 2.53802e-06
-2.04253e-08 3.65629e-08 2.49766e-08
-2.26905e-07 4.76521e-06 -6.89517e-08
2.81526e-07 3.82706e-06 -1.79618e-07
-9.0761e-07 6.64787e-06 5.52486e-07
-3.20143e-06 5.31056e-06 1.09828e-07
-2.19608e-06 4.1622e-06 7.61181e-09
-1.33901e-06 2.24297e-06 -2.50482e-07
5.89038e-09 4.44421e-08 5.58705e-08
2.59916e-09 1.30895e-08 9.76759e-10
-3.50519e-09 4.65825e-09 -9.8957e-09
4.03497e-07 3.72045e-07 -2.18303e-07
9.89331e-07 1.69621e-06 -2.21503e-07
5.51699e-07 5.46003e-07 -3.28042e-07
1.39125e-09 2.84986e-08 3.02662e-08
-1.00002e-08 1.09202e-08 1.10455e-08
-2.97041e-09 1.12052e-08 2.41921e-09
2.04332e-08 1.54145e-08 3.99364e-08
2.75279e-08 6.47234e-09 4.36436e-08
1.43061e-08 3.65291e-09 2.67709e-08
1.69436e-08 1.79245e-08 3.81976e-08
4.02437e-08 3.43707e-08 8.49422e-08
2.41108e-07 2.87466e-07 -8.35375e-08
4.17749e-08 2.9431e-08 7.95988e-08
-6.42422e-07 4.65289e-06 -3.78872e-07
2.16607e-06 2.66156e-06 -2.37603e-07
2.02497e-06 3.09139e-06 -4.66103e-07
-2.51143e-08 2.03767e-07 1.87265e-07
-6.93151e-08 2.98874e-07 2.66047e-07
4.52642e-06 2.67341e-06 1.4588e-06
5.21829e-06 2.3201e-06 6.70023e-07
4.54271e-07 3.30297e-07 -3.96087e-07
1.24445e-06 5.53038e-07 -2.99114e-07
2.28951e-05 1.68071e-05 1.70832e-05
1.85818e-06 2.20348e-06 2.77036e-07
1.62545e-06 9.68638e-07 3.85011e-08
2.22531e-05 1.86439e-05 2.07614e-05
-1.10522e-06 3.7888e-07 -1.00626e-07
-1.16961e-06 4.57502e-07 -1.8579e-07
4.30162e-09 1.3582e-08 3.80092e-08
3.87962e-10 1.87931e-08 4.1444e-08
9.92202e-07 5.29882e-07 9.33896e-08
9.90754e-07 6.36763e-07 -2.80465e-08
5.89122e-08 8.29695e-08 -1.90986e-08
4.1813e-05 1.87441e-05 -2.80979e-05
4.18432e-05 1.85105e-05 -3.07031e-05
3.4062e-08 8.54977e-08 1.58498e-08
4.35296e-08 -2.24933e-08 2.89654e-09
4.47265e-07 3.8197e-07 2.31255e-07
2.2561e-07 1.43476e-07 1.03315e-07
6.4714e-07 3.51725e-07 -2.68632e-07
7.76549e-07 3.70694e-07 -3.03716e-08
-5.6881e-09 1.14472e-07 -1.08241e-08
1.20822e-07 1.57901e-07 -5.9471e-08
4.07492e-07 2.26716e-06 -7.6347e-07
1.20563e-06 9.48924e-07 3.38832e-08
8.19824e-09 -2.10215e-09 -1.112e-08
-1.10921e-09 -7.9119e-10 1.21727e-08
2.45613e-05 6.76232e-06 7.31455e-06
2.57354e-05 8.35263e-06 1.0983e-05
-4.30854e-08 5.02972e-08 -1.03627e-07
-2.87907e-08 6.51632e-08 -1.2717e-07
9.33032e-07 9.10558e-06 2.18971e-06
1.26372e-07 1.53602e-07 -2.17798e-07
1.23795e-07 1.78153e-07 -2.34632e-07
4.33884e-08 1.52943e-07 1.75692e-07
9.02803e-08 2.44249e-07 2.74247e-07
2.23722e-06 7.015e-07 -3.65789e-07
-5.96253e-07 6.23311e-06 9.98138e-07
-2.18503e-06 3.8615e-06 6.37356e-07
7.49389e-07 1.38019e-07 -2.23674e-07
2.62905e-07 5.90999e-07 3.64355e-07
3.17236e-07 8.90329e-07 5.24733e-07
-6.31215e-08 8.37834e-08 -1.36302e-07
-6.17558e-08 6.11046e-08 -1.0123e-07
1.22401e-07 2.3028e-07 -1.67199e-07
2.72846e-08 1.45433e-07 -9.91935e-08
-2.51938e-05 1.61907e-05 -2.31629e-05
-2.83466e-05 1.45223e-05 -1.8557e-05
2.55781e-06 1.13944e-06 1.48092e-07
2.23919e-06 1.2981e-06 -1.8976e-08
-6.20921e-07 1.75991e-07 -2.11461e-08
-1.45538e-06 5.07674e-08 4.31755e-07
-1.23246e-06 1.17951e-06 -1.85738e-07
9.49833e-07 1.00154e-06 8.47689e-08
2.75839e-07 2.75615e-07 3.70285e-08
4.51688e-05 2.73621e-05 4.01244e-05
-6.24869e-06 3.42006e-06 1.94441e-06
5.40636e-05 2.42024e-05 3.71783e-05
-2.61213e-09 8.03763e-09 -9.65126e-09
-1.72662e-09 6.27665e-09 -7.21622e-09
0.000117562 2.9266e-05 6.11188e-05
0.000104405 3.3169e-05 6.41217e-05
-7.40157e-10 -4.6499e-10 1.36344e-09
-1.28608e-09 7.1097e-10 2.73161e-09
3.82532e-07 5.45428e-07 -3.98089e-08
3.38572e-07 5.9541e-07 -1.06133e-07
3.62074e-05 2.69357e-05 -3.20561e-05
3.98804e-05 2.58712e-05 -3.27945e-05
1.92052e-07 7.62296e-08 -9.96381e-08
-4.10268e-09 -1.69579e-09 6.90986e-09
2.37568e-07 1.87466e-07 -1.91795e-07
1.34418e-08 1.25332e-07 -1.02574e-07
2.20816e-07 3.571e-08 -8.10335e-08
1.93498e-09 1.32748e-07 3.63427e-08
5.28182e-07 2.82154e-07 1.12863e-07
5.71353e-07 3.07856e-07 4.0521e-08
9.90759e-08 1.39143e-07 1.31675e-07
8.86283e-08 3.79832e-09 -5.30076e-08
2.3317e-06 3.68382e-06 -2.73875e-07
2.66117e-05 4.11044e-06 -2.1192e-06
-3.27607e-08 2.76124e-07 7.90756e-08
-6.53691e-08 3.72594e-07 1.0345e-07
2.3276e-05 3.85548e-06 -4.05162e-06
2.51367e-05 4.22165e-06 -4.27297e-06
4.66045e-08 9.1704e-08 -2.74945e-08
6.48369e-08 1.8206e-07 -3.69919e-08
5.07267e-05 3.81264e-05 7.1465e-05
8.09416e-06 3.33001e-05 5.59524e-05
0.000187165 7.57582e-06 2.27252e-05
0.000170426 8.8975e-06 2.18993e-05
9.14628e-06 3.10778e-05 5.08398e-05
2.92349e-07 2.17123e-07 2.59809e-09
8.2596e-07 4.49469e-07 -1.38884e-07
1.01856e-07 1.75174e-07 -4.91845e-08
7.46402e-07 5.66941e-07 1.27579e-07
6.84931e-08 2.00806e-07 -5.91809e-08
8.08983e-08 1.6915e-07 3.93518e-09
4.13278e-07 -1.64283e-07 3.81045e-07
4.30691e-07 3.18472e-07 -2.71414e-07
3.96501e-07 4.01434e-07 -3.3794e-07
5.16985e-05 1.59412e-05 2.66233e-05
5.56397e-05 1.48964e-05 2.55577e-05
6.79944e-07 -2.74875e-08 4.57224e-07
5.07877e-07 2.86277e-07 1.82328e-08
-8.30194e-08 3.93776e-08 3.54287e-09
-1.14956e-07 6.21923e-08 2.1117e-08
4.38792e-05 4.31515e-05 6.47072e-05
1.94548e-05 3.93935e-05 5.53313e-05
7.41529e-07 4.1691e-07 2.71135e-07
9.06525e-07 3.46377e-07 2.8358e-07
2.05417e-07 1.58357e-07 8.84945e-08
3.20358e-07 3.68674e-07 1.66002e-07
9.91634e-08 9.57867e-08 -1.28062e-07
1.12139e-07 7.44947e-08 -1.09131e-07
1.41398e-09 1.03471e-08 1.42663e-09
9.87932e-10 1.0186e-08 1.85913e-09
8.56493e-08 6.12335e-08 -9.31922e-08
3.4753e-09 2.36211e-09 -8.23645e-09
-1.14113e-09 4.43112e-09 -4.97576e-09
2.77804e-05 1.30028e-05 -1.40821e-05
7.58431e-07 5.97952e-07 2.35085e-07
7.83916e-07 5.65213e-07 1.05664e-07
2.4156e-05 9.33255e-06 -1.04699e-05
2.71289e-05 1.29042e-05 -1.58108e-05
3.98615e-09 1.32946e-08 -2.8717e-08
4.35909e-10 7.09866e-09 -1.46218e-08
7.13744e-08 2.67178e-07 2.04064e-07
2.05945e-07 2.47987e-07 2.08302e-07
1.54127e-06 1.06038e-06 7.94229e-07
1.91492e-06 9.53117e-07 5.08599e-07
1.9142e-09 7.01502e-09 6.15713e-09
6.12365e-10 7.52029e-09 7.3024e-09
3.18157e-07 2.27374e-07 -4.70901e-08
5.81643e-10 2.99726e-09 5.91053e-09
-2.77667e-08 1.94863e-08 -9.61695e-09
-2.10704e-08 9.66728e-09 3.39139e-08
2.99931e-07 2.29643e-07 5.97166e-09
3.86605e-07 3.0114e-07 1.78376e-08
1.27343e-08 -1.78097e-09 2.76765e-08
-1.90567e-09 1.14076e-08 4.16986e-08
2.11599e-09 -5.47793e-09 -1.53135e-08
-2.15135e-06 2.42973e-07 6.69091e-07
5.07605e-08 -1.99254e-08 -1.33318e-09
-2.23131e-06 3.07485e-07 4.15961e-07
5.75755e-07 1.55093e-06 2.60686e-07
4.98889e-07 1.05491e-06 1.70023e-07
1.1448e-07 3.15803e-07 1.66443e-07
1.47668e-06 5.10123e-07 -1.80594e-07
4.7136e-07 2.11048e-07 1.41348e-07
4.8288e-07 2.93589e-07 1.39995e-07
1.58814e-07 3.42102e-07 1.61814e-07
-3.95517e-08 1.9871e-07 1.90254e-07
-1.89599e-08 2.10409e-07 1.84953e-07
4.17306e-08 1.09256e-08 -4.61495e-08
6.82499e-08 6.27898e-08 -5.13563e-08
2.16987e-07 1.19381e-07 -1.23446e-07
5.41674e-07 8.6048e-06 1.50707e-06
7.56728e-09 9.69146e-09 3.70492e-08
2.51311e-09 8.38833e-09 2.56629e-08
1.03446e-06 7.30277e-07 -1.63953e-07
8.10484e-07 1.01182e-06 -2.74735e-08
1.66538e-06 1.04017e-06 -5.32767e-07
1.24169e-06 8.29105e-07 -4.07077e-07
1.02482e-06 9.79747e-07 3.56717e-07
3.44353e-07 2.90895e-07 -1.7675e-09
3.18557e-07 2.58587e-07 7.42901e-08
2.71833e-07 2.14732e-07 -1.99733e-07
-1.18533e-08 1.98163e-08 8.41623e-09
-8.14307e-09 2.47759e-08 -1.21811e-09
-8.56772e-09 2.43442e-08 -3.38496e-09
7.22769e-08 2.79351e-08 -7.48489e-08
1.4102e-08 5.38488e-08 -8.22343e-08
7.27391e-08 1.09767e-07 -1.75587e-07
-1.05447e-08 6.37156e-08 -7.01668e-08
1.26957e-07 1.9677e-07 1.45288e-08
3.33201e-06 5.57833e-06 -3.46953e-07
2.64661e-08 2.03975e-08 6.67243e-08
1.941e-08 1.98518e-08 6.82774e-08
1.19345e-06 2.74277e-07 1.65212e-07
3.15102e-06 1.04884e-06 -4.58541e-08
1.36999e-07 2.41091e-07 -9.75064e-08
1.83764e-07 1.42278e-07 -9.30836e-08
1.10959e-07 5.90015e-07 5.02438e-08
-5.2469e-08 9.92822e-07 8.80938e-08
2.17753e-08 7.24977e-08 8.01888e-08
1.63374e-08 7.36491e-08 7.30896e-08
2.11187e-08 2.23356e-08 -4.09894e-08
1.86745e-08 3.50669e-09 -1.61275e-08
1.62075e-08 3.23402e-09 2.31549e-08
1.82879e-08 1.20282e-08 3.90368e-08
1.5099e-08 1.6773e-08 -3.34433e-08
6.62379e-06 3.71795e-06 1.32916e-06
2.40864e-05 1.73516e-05 -1.40216e-05
-4.44571e-09 2.27334e-07 2.84145e-07
-1.19615e-07 1.84172e-07 2.21981e-07
7.93558e-07 1.57836e-06 -2.67641e-07
6.79061e-07 1.89748e-06 -2.2763e-07
0.000137681 9.59982e-06 2.33818e-05
0.000125081 1.10335e-05 2.74995e-05
2.2295e-05 1.51288e-05 -1.21902e-05
6.69478e-06 4.75364e-06 2.27076e-06
-8.97454e-07 7.3531e-07 -1.83379e-07
-9.33995e-07 6.51136e-07 -1.75027e-07
4.42504e-06 3.68316e-06 1.58187e-06
2.11669e-05 1.52331e-05 1.46444e-05
1.92476e-05 1.24068e-05 1.16121e-05
1.3884e-09 -6.27304e-09 2.1591e-08
-2.0701e-08 1.50323e-08 -1.24859e-08
-1.3815e-07 6.73872e-08 6.43177e-08
1.81087e-05 1.2383e-05 1.06066e-05
-2.18007e-07 6.52879e-08 -5.24147e-08
-1.71038e-07 8.06435e-08 2.32826e-08
-4.46817e-07 2.80072e-07 -2.05737e-07
-2.74213e-07 1.60037e-07 -1.2436e-07
-2.12804e-07 8.14919e-08 -1.13646e-08
1.28014e-06 5.1051e-06 -2.0461e-07
9.67334e-09 5.56049e-09 -6.37692e-09
1.00641e-08 7.46176e-09 -1.12308e-08
-1.30155e-08 3.18061e-08 -1.36765e-09
7.99077e-09 2.22143e-08 1.74208e-08
-5.72001e-09 1.44183e-08 9.35747e-09
-1.58412e-08 2.89206e-08 1.09597e-08
-1.953e-08 2.52307e-08 5.87899e-09
-3.11712e-08 5.41422e-08 -5.2519e-09
4.32925e-08 2.73612e-09 -4.8254e-08
2.63559e-07 3.09228e-07 4.04563e-08
2.67185e-07 1.52099e-07 -1.01737e-07
1.97365e-07 1.859e-07 1.7733e-08
-2.23596e-08 9.43876e-08 -1.28051e-08
9.54757e-07 4.35872e-07 1.89101e-08
-4.24151e-06 4.06847e-06 2.60659e-06
-3.03411e-06 4.15433e-06 2.54856e-06
-1.11472e-06 7.01299e-08 3.89713e-07
-9.70144e-07 -4.00439e-08 5.9299e-07
1.46205e-06 6.8357e-07 -2.20596e-08
1.33848e-06 2.58533e-07 4.46875e-07
-1.50393e-08 1.00947e-08 5.93921e-08
-5.71327e-07 -1.66043e-08 -5.15096e-07
-9.77647e-07 7.43315e-08 -4.70531e-07
-4.47589e-09 8.40542e-10 5.35529e-09
-1.18021e-08 6.69461e-09 1.31497e-08
-1.10537e-08 -6.37342e-10 -1.65636e-09
1.60878e-07 4.82212e-07 1.24757e-07
1.30863e-07 4.69259e-07 9.75392e-08
-2.66138e-08 2.21011e-08 2.1522e-08
3.37858e-07 2.35991e-07 -2.62834e-07
-4.02763e-08 2.76275e-07 1.28383e-07
-1.43753e-06 2.19359e-06 3.75463e-07
-1.37687e-06 2.06021e-06 2.99333e-07
-1.42568e-07 2.54008e-07 1.29402e-07
-6.87487e-08 1.01393e-06 -7.25149e-08
-6.72368e-09 1.07978e-06 -1.06093e-07
3.15911e-07 5.74208e-07 -3.40934e-08
-2.56122e-08 2.67082e-08 3.35754e-08
1.57782e-06 2.42257e-06 -8.23677e-07
1.74455e-06 1.80845e-06 -3.80532e-07
-3.81909e-08 2.00136e-06 -9.17241e-07
-3.2679e-08 3.7723e-09 -8.65818e-09
3.27217e-05 2.0199e-05 2.85015e-05
2.64802e-05 1.96925e-05 2.58117e-05
8.49906e-09 -4.54042e-10 -1.1245e-08
5.02922e-09 7.72642e-08 3.50354e-08
3.77689e-05 2.13135e-05 -2.73515e-05
1.71054e-08 1.33518e-07 6.55051e-08
2.54872e-08 2.7985e-08 5.68139e-08
4.18922e-08 2.37978e-08 5.69412e-08
3.60575e-07 3.60475e-07 -2.911e-07
2.75688e-08 2.41166e-08 4.47795e-08
2.82985e-06 5.46686e-06 -9.57119e-07
3.47695e-06 4.31812e-06 -6.4721e-07
1.42182e-08 6.67331e-08 8.71222e-08
-1.21914e-08 7.15345e-08 2.08781e-08
-2.63074e-08 1.40069e-08 2.94191e-08
-1.38104e-08 3.5867e-10 8.21992e-09
6.88087e-06 1.45958e-06 -4.11889e-07
8.63776e-06 2.1338e-06 -3.32854e-06
-2.40669e-06 2.07726e-06 1.24818e-07
-1.82647e-07 4.16169e-07 4.85872e-08
2.22531e-06 8.89918e-07 -1.86603e-07
-6.11518e-08 8.14629e-08 7.88675e-09
-2.55611e-08 9.51968e-08 -5.18043e-09
-2.08551e-06 1.95192e-07 6.03624e-07
-2.34117e-06 5.57999e-07 -4.36471e-07
-1.02246e-06 2.45447e-07 -1.00084e-07
-1.19943e-06 1.46295e-07 -4.00515e-07
-7.19879e-08 9.62931e-08 -6.17141e-08
-4.72773e-07 4.04526e-07 4.37766e-09
4.77447e-07 1.61247e-07 -2.47259e-07
4.77792e-07 1.78982e-07 -1.99214e-07
-4.96093e-07 4.1935e-07 1.08791e-08
6.69679e-07 4.69809e-06 7.12821e-08
1.63999e-06 4.07031e-06 1.07243e-08
1.11197e-06 3.72407e-06 1.67652e-07
1.36464e-08 1.54341e-08 5.58082e-08
6.98254e-06 1.50092e-06 1.80664e-07
7.74459e-06 1.65439e-06 -1.04834e-06
-1.36482e-06 6.34411e-06 -1.11071e-06
1.3118e-08 -2.16253e-09 1.55706e-08
1.86571e-06 4.22033e-06 5.41572e-08
3.85127e-06 7.15265e-06 3.69124e-06
4.55609e-06 5.67328e-06 2.48412e-06
8.04493e-06 6.95884e-06 3.28566e-06
1.14106e-07 4.1297e-07 7.16991e-08
8.50278e-08 5.27303e-07 5.32383e-08
-3.28259e-07 1.5086e-06 1.73907e-07
-9.40345e-08 8.58516e-07 1.04614e-07
6.5466e-07 2.86061e-07 1.40222e-07
3.57499e-07 5.18589e-07 1.08113e-07
1.84905e-06 6.27087e-07 -2.38119e-08
2.38235e-06 9.73622e-07 3.19643e-07
-3.86468e-08 9.11608e-10 2.97091e-08
-3.30251e-08 -2.66244e-09 1.5177e-08
7.44973e-08 1.77529e-08 -7.91166e-08
5.88742e-08 7.85365e-09 -4.80272e-08
-2.22208e-08 7.36385e-08 1.10901e-07
1.58354e-08 6.01865e-08 1.17951e-07
-1.52354e-08 6.21604e-08 1.03602e-07
2.6146e-07 9.99836e-08 1.98675e-07
3.87818e-07 2.34965e-07 -5.68978e-08
5.43193e-07 2.55698e-07 1.36878e-07
2.3035e-08 7.30738e-08 -7.98142e-08
1.23961e-08 7.45497e-08 -7.61301e-08
-3.24473e-08 5.6232e-07 -3.2682e-07
3.93007e-08 3.31012e-07 -1.97755e-07
-6.47981e-07 3.15304e-06 -5.60636e-07
-1.19859e-06 2.41406e-06 -4.38943e-07
-1.40389e-08 6.15037e-08 -5.44776e-08
2.0189e-07 1.05192e-09 -4.11994e-08
-2.13124e-08 5.36969e-09 1.22856e-08
1.31209e-08 3.22469e-08 -4.99551e-08
-1.32717e-06 3.84533e-06 -1.67329e-07
-7.45304e-08 3.72741e-07 -2.76846e-07
-1.3662e-07 3.24564e-07 -2.2898e-07
1.9354e-05 2.51635e-05 2.48613e-05
1.59375e-06 8.12735e-07 1.15191e-06
7.33821e-05 6.34237e-06 6.72089e-06
8.18165e-05 6.54214e-06 -3.14481e-06
6.80867e-05 6.67598e-06 -1.03624e-05
7.92668e-05 6.33101e-06 -5.19073e-07
1.80614e-06 7.99435e-07 1.04724e-06
1.85965e-05 2.14172e-05 2.04381e-05
1.69837e-05 2.15148e-05 1.89577e-05
4.45873e-08 2.82814e-08 -7.91935e-08
-2.50358e-08 5.5884e-09 -2.75259e-08
-1.21295e-08 4.61356e-09 -5.07041e-08
5.01003e-08 1.76257e-08 -6.55478e-08
2.25903e-08 8.01641e-09 -3.19056e-08
1.3528e-07 2.37094e-07 8.37639e-08
1.01566e-07 3.48336e-07 2.06712e-07
-6.78455e-07 9.56985e-08 2.35029e-07
-1.72295e-05 7.90048e-06 -7.94555e-06
-1.84775e-05 7.75219e-06 -8.19307e-06
-8.27315e-07 8.18812e-07 -2.27023e-07
2.06477e-07 1.98924e-07 -1.61276e-07
3.5799e-07 3.75038e-07 1.08529e-07
1.83969e-07 5.00502e-07 -2.65762e-07
1.73394e-07 2.11881e-07 -1.42318e-07
1.26816e-07 4.6068e-09 7.55566e-08
1.03954e-07 5.49445e-08 1.32735e-07
6.56495e-08 3.30296e-08 8.58573e-08
1.1247e-06 1.51215e-06 -1.02798e-07
1.24918e-06 1.70549e-06 -1.0572e-07
-2.83356e-05 1.67063e-05 -2.63657e-05
-1.06687e-07 2.24802e-07 4.63528e-09
3.48898e-08 6.88115e-09 2.30532e-08
-2.91023e-08 6.95856e-08 1.26494e-07
5.97541e-07 1.80624e-06 -1.91743e-07
6.30592e-07 1.33784e-06 -1.63678e-07
-6.08611e-08 1.01308e-07 -2.22015e-09
1.13628e-07 1.81264e-07 4.65636e-09
-1.19471e-07 1.79341e-07 -1.34599e-08
-1.73643e-05 1.49352e-06 -2.14367e-07
3.15193e-09 1.17755e-07 -5.68428e-08
-3.93402e-09 1.00408e-07 -4.9861e-08
-1.14024e-05 3.21471e-07 -1.38646e-06
7.66002e-07 6.96319e-07 -2.36332e-07
-1.47894e-05 2.94302e-06 2.19066e-06
-1.09722e-08 1.00074e-07 2.57938e-09
1.52866e-06 5.79471e-07 1.03992e-07
1.70458e-06 4.55178e-07 4.32402e-07
2.33484e-09 6.5671e-08 -3.35923e-08
-8.84014e-09 7.80398e-08 2.40023e-08
1.1127e-07 1.98089e-07 -1.17412e-07
1.76653e-08 -1.06189e-08 -1.69616e-08
1.74325e-08 1.35885e-10 -3.56644e-08
4.34741e-07 4.45948e-07 -1.14582e-07
5.37362e-07 3.76012e-07 6.75659e-08
2.50974e-06 1.94365e-06 7.55412e-07
2.95417e-05 2.20742e-05 2.8229e-05
2.30397e-05 2.18916e-05 2.6156e-05
1.80904e-08 8.32023e-10 2.56518e-09
-1.55811e-08 2.45147e-10 -1.62011e-08
2.36651e-05 2.17867e-05 2.42685e-05
3.5052e-07 9.41931e-08 1.50628e-07
1.81365e-07 1.39593e-07 1.65248e-08
-2.10818e-08 5.47341e-08 -1.02833e-09
-1.06055e-07 2.07422e-07 1.86305e-07
-9.3635e-08 2.27905e-07 1.87186e-07
-3.80138e-07 3.38956e-06 2.90573e-07
-1.02448e-07 4.40546e-08 4.10204e-08
-2.41144e-08 1.22828e-07 9.70407e-08
-8.10293e-06 2.78306e-05 -4.75147e-05
-5.35892e-06 2.74426e-05 -4.2576e-05
-5.29896e-07 3.37758e-06 3.03454e-07
1.0542e-06 1.15976e-06 -2.21143e-07
-1.68215e-07 2.90969e-06 3.87573e-07
-2.5679e-09 -3.7692e-09 -2.17541e-08
4.11541e-07 7.83956e-07 -1.78585e-07
8.02411e-06 3.06541e-05 -3.02021e-05
4.41408e-07 6.0824e-07 -8.02594e-08
8.75671e-07 5.83646e-07 5.79676e-07
5.77397e-08 1.01972e-07 -5.10198e-08
-3.19758e-08 4.63094e-08 3.01961e-08
9.35262e-09 2.33271e-09 -4.11631e-09
-4.2796e-09 3.47672e-09 -2.21872e-08
-2.02291e-05 1.77369e-05 -1.74485e-05
-2.95884e-08 6.12096e-08 9.60414e-08
1.20556e-06 4.62255e-07 -1.38007e-07
-5.6234e-09 -2.77289e-09 1.95395e-09
6.95087e-08 1.33065e-07 1.4588e-07
2.25711e-08 7.58402e-10 2.28242e-08
1.24344e-05 2.20215e-05 -1.63997e-05
2.53312e-07 8.9965e-08 -1.03509e-07
1.26681e-05 2.24786e-05 -1.86542e-05
0.000271282 -2.85217e-07 -2.89879e-05
0.000250564 2.37574e-06 -3.60878e-05
1.63183e-08 9.84693e-08 9.47184e-08
0.00016236 2.1766e-05 -6.38945e-05
1.44368e-08 1.10978e-07 9.10384e-08
-5.65728e-08 7.11113e-08 1.25349e-08
-6.52161e-08 5.19755e-08 -6.77757e-09
4.37585e-08 1.52731e-07 1.29246e-07
9.86393e-07 1.02167e-06 -3.23468e-07
1.45006e-08 5.36557e-11 -9.06146e-09
3.36062e-07 2.57453e-07 -8.19801e-08
3.22843e-05 3.01557e-05 -3.30657e-05
3.37576e-07 1.82586e-07 7.46883e-08
3.41822e-07 1.47752e-07 1.33225e-07
3.46653e-07 1.7436e-07 1.13092e-07
3.17761e-05 2.19254e-05 3.0481e-05
-9.51279e-08 5.10676e-08 -1.89195e-08
-8.34827e-08 4.39898e-08 -4.78586e-08
-1.78757e-07 1.07255e-07 -1.0581e-08
-3.1203e-07 2.62024e-07 -6.84033e-08
3.54416e-05 2.53231e-05 3.48736e-05
7.05711e-06 3.88542e-06 -1.24106e-06
3.2363e-06 4.17329e-06 -1.89314e-06
3.60468e-06 4.3102e-06 -1.81305e-06
0.000178685 6.20012e-06 -2.26485e-05
0.000166905 6.99233e-06 -2.05297e-05