# vtk DataFile Version 2.0
S, Created by Mohamad Ibrahim Cheikh
ASCII
DATASET UNSTRUCTURED_GRID
POINTS 10490 double
-223.577 20.3396 -34.7911
-223.727 23.287 -32.7659
-130.488 -29.2935 69.291
-194.382 -37.8828 -41.0234
-207.466 29.5128 40.0416
-235.874 27.4021 13.474
-191.273 -39.7113 -41.0837
14.3665 -3.08486 87.8021
-191.05 39.2367 -41.6625
-193.388 36.9452 -42.4295
-251.146 3.21395 -3.38169
-251.006 5.46366 -0.71534
-204.324 29.3067 -42.1169
18.5556 -1.43547 87.7484
-201.226 30.3662 -43.1792
-151.258 68.7545 -14.6879
-148.446 69.9669 -12.2781
241.381 21.761 -11.7084
240.378 24.345 -8.78198
38.9785 73.0455 -47.1418
42.8288 72.3102 -47.8608
45.3624 -3.16242 -86.499
49.2294 -1.48363 -86.2849
-145.562 -45.49 -55.5028
-142.057 -46.914 -55.4293
-191.797 -27.3608 49.9165
-189.472 -30.0396 49.4613
-64.3407 -67.8318 51.3422
-66.4848 -66.0129 53.3397
-121.223 -41.675 -64.8697
-205.48 44.6123 24.1764
-208.425 41.877 25.9196
-64.8728 -22.5284 81.9831
-61.2479 -23.8954 81.9374
44.2714 4.24861 86.5216
-201.398 -44.9169 27.5781
-50.3801 82.9465 -23.5188
-47.0899 82.6679 -25.2693
-109.54 -78.4117 -11.2496
-105.514 -79.2425 -10.0788
-195.483 42.6472 35.3088
-200.946 -43.0024 30.8403
-54.4214 -15.266 84.5479
3.48469 8.35315 87.5942
226.254 36.0728 -13.2456
223.493 37.2796 -15.4578
-146.968 22.441 -67.7933
-143.81 23.7185 -68.1865
-167.023 -43.0213 -49.7773
-163.504 -43.4759 -50.802
-215.265 -7.15506 -44.9387
-215.165 -3.15901 -45.4531
-105.613 -17.5674 77.9088
-104.075 -21.1054 77.2816
-247.961 -12.5206 7.72454
-247.223 -12.2228 10.5723
-226.223 -18.8441 33.516
-129.021 -40.833 -63.5503
238.446 4.07585 -27.6839
236.191 2.11822 -30.1597
30.6275 -3.66756 -87.268
26.6601 -1.91455 -87.4832
-224.96 -22.538 32.252
-47.6615 -75.8706 41.3465
-235.553 -26.7703 15.3058
-109.974 51.3352 -60.2327
-237.92 -25.2883 13.1995
-16.85 -1.36382 -87.7917
-20.0154 -3.92887 -87.6329
25.2874 7.67772 -87.2168
27.2946 3.82748 -87.3965
25.4022 1.80525 -87.5314
45.9433 -6.27628 -86.2913
-242.159 -16.9738 16.6272
249.587 -5.3687 -9.4094
249.11 -2.30241 -11.881
-169.133 48.1753 43.8281
30.4789 -13.4457 -86.3104
-165.503 47.9501 45.7302
-244.371 -14.4424 14.9736
243.986 6.92823 20.1946
244.544 3.56465 20.2423
-218.529 -34.2524 26.909
-142.145 -69.4108 21.2701
-139.629 -70.7397 18.7869
-221.095 -32.0559 27.0489
-157.97 -59.7991 33.3599
-205.032 32.4695 39.2805
-154.318 -61.363 32.6039
21.3177 7.47884 87.3638
-119.019 18.5806 75.2627
-116.353 20.6767 75.2263
25.5774 -59.0279 64.6499
29.1112 -57.6546 65.6977
-134.433 55.1184 -49.9338
-136.697 52.6176 -51.8424
-177.082 57.9263 23.4385
-176.665 59.4055 19.846
-69.2927 65.7259 -53.2565
-62.7052 16.9762 -83.513
-66.3269 16.9342 -83.1783
-65.7804 67.3241 -51.7851
124.437 57.7544 50.1263
121.003 58.3618 50.4512
-132.441 -69.8468 26.7943
-132.815 -68.0006 30.9882
-188.841 35.1325 46.3006
-185.094 37.306 46.4524
-232.725 13.176 -30.6505
-58.728 75.7541 39.7877
-60.0367 77.262 36.5143
-231.926 16.8003 -29.6013
-175.27 -46.9578 -42.1658
-178.779 -11.2212 60.8685
-181.793 -8.37231 60.2306
-195.805 53.7616 12.6399
-198.355 52.0753 14.6686
-195.137 -6.40116 -55.146
-196.107 -2.36039 -55.0454
-155.747 25.1074 64.3725
-159.433 22.5079 64.2287
-196.21 -54.5516 -7.3989
-193.182 -56.048 -5.79628
-90.5124 75.4062 -32.4792
-86.4978 75.83 -32.8298
-39.2325 -78.9663 -36.3302
-42.7331 -77.653 -38.6062
-35.6785 20.7995 -84.5904
-119.247 -59.074 -50.1331
-116.052 -58.3858 -51.8286
-103.564 -58.9081 54.4123
-107.458 -57.2147 55.2879
-176.021 46.9247 -41.8181
26.8931 14.148 -86.344
23.7361 15.8691 -86.158
-175.586 44.59 -44.5099
-89.4391 -39.5775 72.0989
-93.3073 -38.4326 72.1181
-1.70862 -75.0107 -46.0114
2.63044 -75.2474 -45.6177
-158.019 -33.1911 -59.877
-154.736 -36.6288 -58.9149
24.7817 73.3078 47.9039
27.3237 71.3145 50.664
-166.519 38.8396 53.2978
-168.938 36.4699 54.0349
126.631 60.2672 46.3533
124.965 62.2384 44.2545
55.8947 20.2797 83.3681
-158.128 12.6697 67.2471
-155.54 9.86321 68.4457
-42.8925 74.3046 -44.6944
70.8054 53.1488 -65.6156
-40.052 75.922 -42.231
222.064 -27.8281 -30.5327
225.276 -26.0122 -29.2253
-14.8315 80.5781 -34.9891
-17.8598 79.4052 -37.4134
247.477 -7.06408 13.9945
245.671 -9.07238 16.5073
-182.883 19.8678 57.0475
-181.343 22.7121 56.5861
-54.6369 69.363 50.6685
-52.332 71.221 48.3351
-221.668 26.3889 -32.1213
245.288 -12.7014 14.713
-123.331 -44.6555 -62.3511
-128.466 -46.8974 -59.3641
-126.777 -44.246 -61.7942
-219.064 -11.0502 41.7923
-206.356 49.8859 -6.47855
-208.04 48.524 -9.51667
-173.56 -35.1359 53.1176
-196.131 -34.866 -42.6471
-56.787 10.728 85.0535
-98.7634 80.788 4.80561
-149.826 -21.4616 67.3433
-153.217 -21.7051 66.3233
-104.987 79.9356 2.1988
-102.59 80.1712 5.29316
-208.259 -1.82319 -49.3018
-211.7 -0.422039 -47.5063
7.15222 77.3913 -41.8129
8.18021 75.5505 -45.0325
-11.8091 86.3112 -16.6523
-15.9905 85.6572 -19.3789
11.9408 74.9125 -45.9854
-209.311 34.913 -34.0773
-209.408 37.4929 -31.1367
-243.667 12.2947 -17.9922
-205.977 40.1052 -30.68
-237.95 16.7343 23.0635
-240.122 13.5395 22.3945
-198.661 34.6906 41.3366
-44.0809 -51.8527 -69.4075
-47.9268 -52.169 -68.8562
-63.2441 78.874 -32.1433
-60.0293 79.8348 -30.4833
-198.888 37.6901 38.4777
-195.368 39.9914 38.3627
193.192 51.8487 -22.0509
191.205 51.6137 -24.5771
-16.79 73.731 -47.6783
-15.9326 71.9054 -50.4235
-160.697 -8.66751 67.1363
-158.239 -5.13606 68.2056
-159.175 -12.1811 67.0347
-155.579 -13.9408 67.7217
-181.215 -39.366 -46.6246
-187.065 -34.8925 -47.3524
234.201 -8.19791 31.0077
231.367 -8.83939 33.3482
-185.722 -37.804 -45.7375
-220.423 -36.3319 -21.8076
-223.2 -33.1947 -23.2995
-73.516 69.9459 46.7962
-199.232 43.3848 -31.6558
-202.395 40.5294 -32.9569
-78.3633 72.1947 42.1912
-74.4427 72.1141 43.1867
-199.862 -47.1002 -25.201
-196.405 -49.1625 -24.5824
-156.236 -38.5574 57.1736
-155.211 -34.5993 59.9791
-162.875 56.2839 -36.4453
-159.719 58.1101 -35.2704
245.94 -16.0776 8.95247
246.756 -13.0532 10.9097
-202.184 25.1289 -45.9107
246.469 -16.6405 5.45947
-222.675 -40.7291 -3.81048
-219.564 -42.6763 -4.53541
-225.905 36.4593 -12.9114
-224.078 36.2201 -16.8752
-228.9 -34.8682 10.6505
-231.376 -33.577 7.89234
-225.472 -37.7617 9.69433
119.529 74.8306 19.8799
-172.162 -51.1027 -38.7774
115.332 75.6469 19.8252
47.9266 12.198 -85.5219
51.5122 10.7916 -85.4557
-180.219 -22.1683 57.2379
-179.911 52.3335 -32.2857
-165.441 0.852244 66.274
-168.564 2.83153 65.2476
-181.017 -17.4099 58.5595
36.4514 -59.7504 63.3342
37.7861 -57.2033 65.5513
-159.984 -59.9391 -31.9018
-182.766 -21.7966 -56.3856
-184.307 -18.0277 -57.0977
-11.9219 15.2621 -86.566
-188.59 -54.9976 19.1023
-192.466 -53.1209 19.6707
-145.914 9.35234 -71.0625
-143.72 12.1627 -71.1845
-174.328 52.4458 35.6753
-173.401 50.7379 38.5801
-187.155 39.7402 -43.3168
-231.49 33.5029 -7.79804
-229.085 35.9763 -4.95777
-234.897 30.8763 -5.94569
241.404 7.72134 23.4446
239.892 10.8374 24.1019
240.609 13.4024 21.8297
-138.877 -61.8295 -39.4945
-138.123 -60.1614 -42.2953
-141.494 -58.2479 -43.5898
-200.351 -41.163 -33.6926
-218.713 20.1202 -38.5056
-52.6085 9.17483 85.5627
-56.6791 -81.1826 27.5696
-60.1937 -81.4603 25.7802
-152.582 56.1751 41.6896
-153.307 58.0808 38.6411
-189.41 -9.89238 -57.0422
-186.061 -8.87638 -58.539
64.9157 -8.696 84.5722
67.8933 -7.05208 84.4389
-196.834 -37.2179 40.1922
-200.414 -34.6082 40.3577
-180.668 -48.245 -37.6855
-174.531 -52.0915 -36.0707
-215.618 -38.5088 23.8566
-218.655 -36.4146 23.7613
-178.254 -50.9813 -35.4224
-121.396 48.0316 -60.2719
-70.7004 60.0406 59.3898
26.871 -68.2956 54.6928
24.8058 -66.5837 56.8795
-87.1758 -8.55384 -82.1
-83.9981 -6.24015 -82.7117
-28.2198 86.1644 -14.9061
-32.239 85.7301 -16.3429
-74.5513 60.4926 58.3455
-117.461 49.0973 -60.3678
67.0719 -10.9512 -84.1029
63.3219 -11.5598 -84.3769
-122.216 44.8243 -62.4986
-75.5991 64.5099 -53.6913
-79.1712 64.6095 -52.9359
-210.937 -46.4388 -11.8315
-207.911 -47.277 -14.7164
-70.3868 -66.9039 51.5879
-81.9544 62.1105 -55.3532
181 57.5742 -20.4518
187.789 54.7444 -20.7263
-57.9973 -57.7622 -63.2116
-60.255 -59.9456 -60.8771
185.025 56.5077 -18.9619
-52.1899 5.05173 85.9361
170.803 -60.9398 -21.4147
166.658 -61.8362 -22.7994
-242.161 -11.23 20.9366
-241.443 -7.71389 23.3975
231.622 25.8613 -22.5151
229.371 25.1809 -25.8601
225.984 27.6881 -26.9256
-235.385 -18.9682 -24.5117
-234.849 -16.6286 -26.739
-226.061 27.1705 -27.3706
-222.944 28.4653 -29.1278
-220.763 31.3808 -28.1503
-250.634 -7.29266 -0.178777
-176.025 45.3176 43.5526
58.576 51.3468 -68.4648
59.6852 48.5201 -70.3822
128.083 68.3819 32.5486
131.579 68.3034 30.9678
-176.899 47.6323 40.5453
-181.004 46.7605 39.3236
18.7046 -86.4177 15.269
142.022 69.3639 -21.5221
141.075 68.3978 -25.082
23.2384 -86.1703 15.8922
181.098 -44.0243 42.3153
25.6365 -86.6619 12.3796
-189.022 21.6554 -53.858
-189.443 17.909 -55.0399
-212.327 -45.014 14.0799
-120.841 -46.9979 -61.2161
-24.3218 -37.2671 79.2637
52.283 18.5829 -84.0477
55.7985 16.7936 -84.1474
-25.2941 -41.1167 77.2987
-119.139 -6.51108 -77.2257
-115.758 -7.72558 -77.7416
-200.042 16.4866 50.7239
-215.149 -43.2637 14.3209
-153.392 33.1034 61.3798
-156.812 31.4032 61.215
-157.699 28.2582 62.4561
-79.9683 -83.4308 0.60273
-62.3513 73.4654 -43.2535
-61.8217 71.4026 -46.6663
-79.8044 -83.3553 -4.02134
-209.642 -18.6798 44.8808
-58.9699 72.048 46.1231
-205.671 -19.6712 46.671
-191.283 -46.3879 33.3549
-190.153 -45.0072 35.9375
-195.123 47.3331 29.0219
-192.216 -42.6376 37.4515
-97.6207 19.9548 78.6071
-94.008 21.0904 78.8493
-195.846 -41.8709 35.9854
-247.68 -8.81039 12.4837
188.064 -42.0214 40.5963
184.929 -44.2656 39.9696
-127.011 75.542 7.89779
-123.336 76.0904 9.58535
48.8103 1.73987 86.3093
130.442 15.6021 -73.603
-179.652 46.546 -40.3245
198.594 13.1822 52.3606
200.49 9.43594 52.2852
113.307 74.9005 23.7087
109.559 75.3613 24.395
149.539 63.7486 -30.6976
145.706 65.3576 -29.5493
-166.877 -45.6676 -47.4242
129.833 19.3656 -72.8368
-209.792 43.7113 -21.0913
-206.931 46.1349 -19.3138
126.458 20.2181 -73.3306
-61.8753 -0.209561 85.2949
-59.14 2.6963 85.4899
-53.8182 -1.89769 85.9406
[...]
POINT_DATA 10490
VECTORS F double
1.36069e-08 3.05911e-08 7.17671e-09
1.22456e-07 8.70507e-08 -4.05025e-08
1.47112e-07 7.14772e-07 3.36096e-07
5.63412e-08 -7.50371e-09 -2.57547e-08
2.82965e-07 2.49281e-07 -4.23583e-09
1.77075e-07 1.88976e-07 -4.80145e-09
8.19974e-08 2.48033e-08 -7.07129e-08
-1.88409e-06 2.39778e-06 1.21988e-07
9.09101e-07 6.84307e-07 1.3407e-07
9.80132e-07 5.98682e-07 -2.56387e-08
1.18334e-08 7.1657e-08 -3.95009e-08
1.03583e-08 5.58445e-08 -1.85146e-08
1.02485e-07 3.40259e-07 1.75893e-07
-2.29899e-06 3.87615e-06 1.2293e-07
1.40885e-07 1.23709e-07 6.61515e-09
3.31983e-06 7.10712e-07 -8.58814e-07
4.24089e-06 8.07659e-07 -1.67502e-06
-1.21261e-08 2.27883e-08 1.17538e-08
-1.42253e-08 2.2152e-08 1.37437e-08
-2.90337e-05 7.86787e-06 9.25207e-06
-2.87904e-05 5.47359e-06 5.1155e-06
-3.2416e-06 1.96626e-06 -2.80015e-07
-2.95492e-06 1.48665e-06 -2.31967e-07
3.04441e-08 2.11455e-07 -1.83084e-07
5.66231e-08 2.38503e-07 -2.1963e-07
1.69777e-08 1.66359e-07 9.91734e-08
2.06768e-09 1.42178e-07 8.73199e-08
-4.55731e-08 1.9413e-07 2.49487e-07
-1.90648e-07 1.50694e-07 1.57405e-07
2.46032e-07 2.04999e-07 -1.87989e-07
5.45853e-07 2.47881e-07 1.10585e-07
3.67181e-07 2.70847e-07 -7.61057e-08
1.61032e-07 2.92069e-06 8.18189e-07
-2.16986e-07 1.6746e-06 4.68508e-07
-2.00238e-06 2.99854e-06 -2.18021e-08
1.52578e-08 2.85256e-08 6.01009e-08
7.68144e-05 1.26914e-05 2.46143e-05
8.26975e-05 1.46716e-05 2.91299e-05
3.97385e-08 2.8776e-10 -4.93755e-08
3.44477e-08 -2.82867e-09 -2.19118e-08
6.26593e-07 3.40938e-07 1.2924e-08
2.79289e-08 2.90779e-08 6.28256e-08
2.4599e-07 2.79875e-06 5.24729e-07
-1.61077e-06 3.75445e-06 -3.50186e-07
-2.43737e-08 1.46857e-08 -1.09752e-08
-4.10226e-08 3.69413e-08 1.64803e-08
1.24253e-06 8.49474e-07 -4.85949e-08
1.1192e-06 1.4733e-06 2.23487e-07
-4.98672e-08 1.00364e-07 -6.6257e-08
-4.33132e-08 1.12764e-07 -7.94358e-08
5.17716e-08 1.41432e-07 -5.28805e-08
6.75625e-08 1.50172e-07 -4.95934e-08
9.49773e-07 2.26434e-06 6.6821e-07
1.05466e-06 2.20164e-06 7.75152e-07
-3.91665e-08 9.59521e-08 1.60772e-09
-2.74607e-08 7.2512e-08 5.2176e-09
5.9532e-08 9.60127e-08 1.03178e-07
1.75566e-07 3.50221e-08 -6.61413e-08
-1.96778e-08 1.30604e-08 -1.88263e-08
-1.87318e-08 8.13032e-09 -1.73886e-08
-2.49757e-06 3.10687e-06 -2.37884e-07
-2.2995e-06 3.98533e-06 -1.73009e-07
1.42179e-08 8.59376e-08 7.2195e-08
-3.90002e-08 5.72638e-08 9.95751e-08
-1.05885e-08 1.22834e-08 1.53385e-09
1.03668e-05 5.69538e-06 2.53669e-06
-2.03572e-08 3.64617e-08 2.493e-08
-2.13101e-07 4.77461e-06 -6.91621e-08
2.9146e-07 3.84055e-06 -1.80332e-07
-9.21855e-07 6.6561e-06 5.53218e-07
-3.2025e-06 5.32657e-06 1.10826e-07
-2.20022e-06 4.1809e-06 8.05541e-09
-1.34853e-06 2.25708e-06 -2.52068e-07
5.88186e-09 4.43146e-08 5.57258e-08
2.65652e-09 1.34486e-08 9.6447e-10
-3.5854e-09 4.8455e-09 -1.01397e-08
4.05623e-07 3.70954e-07 -2.16104e-07
9.9474e-07 1.70936e-06 -2.23281e-07
5.53199e-07 5.44127e-07 -3.2542e-07
1.39408e-09 2.84173e-08 3.01984e-08
-1.01906e-08 1.12047e-08 1.12277e-08
-3.00843e-09 1.14922e-08 2.42494e-09
2.04025e-08 1.53642e-08 3.98411e-08
2.7488e-08 6.44817e-09 4.35345e-08
1.4293e-08 3.63726e-09 2.66998e-08
1.69209e-08 1.7864e-08 3.81031e-08
4.01703e-08 3.42792e-08 8.47362e-08
2.40553e-07 2.86025e-07 -8.27043e-08
4.16891e-08 2.93481e-08 7.93934e-08
-6.60424e-07 4.63857e-06 -3.77358e-07
2.15171e-06 2.64241e-06 -2.3576e-07
2.0131e-06 3.06802e-06 -4.62064e-07
-2.48103e-08 2.03353e-07 1.86871e-07
-6.89128e-08 2.98252e-07 2.65478e-07
4.50711e-06 2.65117e-06 1.44085e-06
5.17356e-06 2.3073e-06 6.71654e-07
4.54552e-07 3.29289e-07 -3.9335e-07
1.23812e-06 5.50136e-07 -2.97365e-07
2.27362e-05 1.66656e-05 1.69459e-05
1.85023e-06 2.23461e-06 2.84159e-07
1.61783e-06 1.00247e-06 4.61497e-08
2.2124e-05 1.84611e-05 2.056e-05
-1.11068e-06 3.81657e-07 -1.02169e-07
-1.17388e-06 4.60342e-07 -1.87827e-07
4.30163e-09 1.35352e-08 3.78864e-08
3.93641e-10 1.87292e-08 4.13072e-08
9.87163e-07 5.27726e-07 9.25015e-08
9.86455e-07 6.32754e-07 -2.69361e-08
5.87258e-08 8.27316e-08 -1.90266e-08
4.14108e-05 1.84903e-05 -2.77211e-05
4.14297e-05 1.8255e-05 -3.02865e-05
3.39815e-08 8.52514e-08 1.57878e-08
4.34738e-08 -2.24593e-08 2.888e-09
4.45512e-07 3.80587e-07 2.30366e-07
2.24789e-07 1.4304e-07 1.0295e-07
6.44074e-07 3.50097e-07 -2.67542e-07
7.72729e-07 3.6897e-07 -3.05901e-08
-5.57205e-09 1.14118e-07 -1.08333e-08
1.20435e-07 1.57388e-07 -5.928e-08
4.06429e-07 2.24992e-06 -7.57149e-07
1.19646e-06 9.45385e-07 3.23175e-08
8.20109e-09 -2.10782e-09 -1.10865e-08
-1.08713e-09 -7.99004e-10 1.21602e-08
2.44436e-05 6.71918e-06 7.25984e-06
2.56064e-05 8.29345e-06 1.08961e-05
-4.3018e-08 5.04279e-08 -1.03922e-07
-2.86857e-08 6.53365e-08 -1.27531e-07
9.24376e-07 9.07117e-06 2.18273e-06
1.26478e-07 1.53427e-07 -2.17622e-07
1.23932e-07 1.77936e-07 -2.34423e-07
4.32543e-08 1.52405e-07 1.75077e-07
8.99737e-08 2.43342e-07 2.73232e-07
2.22249e-06 6.97946e-07 -3.62152e-07
-6.13513e-07 6.24401e-06 9.99727e-07
-2.18722e-06 3.89771e-06 6.44136e-07
7.51102e-07 1.40841e-07 -2.21672e-07
2.62381e-07 5.88471e-07 3.62881e-07
3.16128e-07 8.85211e-07 5.21815e-07
-6.32064e-08 8.41759e-08 -1.36942e-07
-6.1825e-08 6.1427e-08 -1.01761e-07
1.22331e-07 2.29777e-07 -1.66896e-07
2.74165e-08 1.45105e-07 -9.9031e-08
-2.3708e-05 1.60584e-05 -2.30727e-05
-2.74958e-05 1.41855e-05 -1.81518e-05
2.54106e-06 1.13287e-06 1.46433e-07
2.22571e-06 1.28943e-06 -1.83304e-08
-6.23889e-07 1.76867e-07 -2.12888e-08
-1.45909e-06 5.04944e-08 4.33419e-07
-1.23981e-06 1.20062e-06 -1.90287e-07
9.45197e-07 9.95724e-07 8.45127e-08
2.75959e-07 2.75069e-07 3.71393e-08
4.52427e-05 2.69268e-05 3.94499e-05
-6.28673e-06 3.4112e-06 1.93252e-06
5.41946e-05 2.37353e-05 3.63778e-05
-2.65885e-09 8.23724e-09 -9.87471e-09
-1.75225e-09 6.44523e-09 -7.3911e-09
0.000117737 2.84222e-05 5.93443e-05
0.000104577 3.23116e-05 6.24651e-05
-7.31132e-10 -4.103e-10 1.37181e-09
-1.28325e-09 7.80165e-10 2.76794e-09
3.8105e-07 5.43275e-07 -3.96465e-08
3.3806e-07 5.92683e-07 -1.05246e-07
3.5828e-05 2.66003e-05 -3.16845e-05
3.95419e-05 2.55168e-05 -3.2357e-05
1.91322e-07 7.60014e-08 -9.92083e-08
-4.13962e-09 -1.66951e-09 7.00691e-09
2.37507e-07 1.8722e-07 -1.91602e-07
1.38203e-08 1.25118e-07 -1.02505e-07
2.20764e-07 3.57024e-08 -8.1015e-08
1.9626e-09 1.32328e-07 3.62494e-08
5.25404e-07 2.80663e-07 1.12238e-07
5.68627e-07 3.06325e-07 4.0028e-08
9.88208e-08 1.38694e-07 1.31274e-07
8.84427e-08 3.76836e-09 -5.28783e-08
2.3294e-06 3.66372e-06 -2.71697e-07
2.63415e-05 4.07006e-06 -2.14267e-06
-3.24442e-08 2.75091e-07 7.88326e-08
-6.48735e-08 3.70951e-07 1.03051e-07
2.30336e-05 3.81345e-06 -3.98486e-06
2.48873e-05 4.177e-06 -4.20994e-06
4.65136e-08 9.14694e-08 -2.74384e-08
6.46523e-08 1.81432e-07 -3.68854e-08
5.45597e-05 3.82632e-05 7.19639e-05
1.06438e-05 3.36012e-05 5.66092e-05
0.000184723 7.32464e-06 2.19249e-05
0.000168309 8.60414e-06 2.10269e-05
1.17835e-05 3.15898e-05 5.1836e-05
2.91591e-07 2.16331e-07 2.35795e-09
8.22024e-07 4.47277e-07 -1.38271e-07
1.01498e-07 1.74567e-07 -4.90044e-08
7.4312e-07 5.63973e-07 1.26411e-07
6.8272e-08 2.00115e-07 -5.89605e-08
8.06347e-08 1.68573e-07 3.93609e-09
4.1156e-07 -1.6249e-07 3.78526e-07
4.31767e-07 3.19368e-07 -2.72164e-07
3.97513e-07 4.02328e-07 -3.38699e-07
5.12967e-05 1.57105e-05 2.61939e-05
5.52106e-05 1.46731e-05 2.51172e-05
6.76814e-07 -2.64697e-08 4.5424e-07
5.05861e-07 2.8528e-07 1.80117e-08
-8.45555e-08 4.0088e-08 3.56533e-09
-1.17147e-07 6.3421e-08 2.161e-08
4.53311e-05 4.29244e-05 6.44251e-05
2.081e-05 3.92767e-05 5.52047e-05
7.38227e-07 4.14692e-07 2.69876e-07
9.0216e-07 3.44703e-07 2.8221e-07
2.05095e-07 1.57657e-07 8.82729e-08
3.19395e-07 3.66782e-07 1.65338e-07
9.89837e-08 9.55309e-08 -1.2776e-07
1.11905e-07 7.42798e-08 -1.08859e-07
1.45965e-09 1.0577e-08 1.44471e-09
1.02461e-09 1.04175e-08 1.88924e-09
8.54968e-08 6.10515e-08 -9.29654e-08
3.47455e-09 2.3373e-09 -8.1932e-09
-1.12691e-09 4.40054e-09 -4.94889e-09
2.74505e-05 1.29037e-05 -1.40073e-05
7.55705e-07 5.94951e-07 2.33088e-07
7.80637e-07 5.62512e-07 1.04819e-07
2.39021e-05 9.28127e-06 -1.04462e-05
2.68333e-05 1.28078e-05 -1.57239e-05
3.98614e-09 1.32531e-08 -2.86406e-08
4.44804e-10 7.07303e-09 -1.45814e-08
7.11665e-08 2.66196e-07 2.0333e-07
2.05228e-07 2.47065e-07 2.07542e-07
1.54049e-06 1.05655e-06 7.88798e-07
1.91353e-06 9.49291e-07 5.03116e-07
1.98401e-09 7.18848e-09 6.23266e-09
6.57962e-10 7.7095e-09 7.40082e-09
3.17199e-07 2.26755e-07 -4.69111e-08
6.29541e-10 3.1052e-09 5.97456e-09
-2.76955e-08 1.94344e-08 -9.57886e-09
-2.10141e-08 9.63959e-09 3.38478e-08
2.98764e-07 2.28743e-07 5.93409e-09
3.85034e-07 2.99895e-07 1.77271e-08
1.27223e-08 -1.78787e-09 2.76213e-08
-1.8863e-09 1.13747e-08 4.16192e-08
2.1255e-09 -5.47509e-09 -1.5272e-08
-2.10382e-06 2.29524e-07 6.84735e-07
5.06964e-08 -1.99075e-08 -1.32161e-09
-2.17743e-06 2.87886e-07 4.52421e-07
5.73915e-07 1.56085e-06 2.62003e-07
4.96756e-07 1.06278e-06 1.70873e-07
1.14088e-07 3.14525e-07 1.65795e-07
1.46956e-06 5.08281e-07 -1.78703e-07
4.69565e-07 2.10671e-07 1.40803e-07
4.80996e-07 2.92762e-07 1.39432e-07
1.58322e-07 3.40716e-07 1.61213e-07
-3.9258e-08 1.98379e-07 1.8992e-07
-1.87709e-08 2.10079e-07 1.8465e-07
4.17188e-08 1.08866e-08 -4.60683e-08
6.81744e-08 6.26328e-08 -5.12665e-08
2.16419e-07 1.19041e-07 -1.23114e-07
5.32117e-07 8.61033e-06 1.50909e-06
7.56534e-09 9.6687e-09 3.69816e-08
2.52243e-09 8.36626e-09 2.56152e-08
1.03182e-06 7.28919e-07 -1.63458e-07
8.122e-07 1.00684e-06 -2.87339e-08
1.65315e-06 1.03193e-06 -5.28014e-07
1.23516e-06 8.23414e-07 -4.03214e-07
1.02095e-06 9.74749e-07 3.54209e-07
3.42949e-07 2.89714e-07 -1.72603e-09
3.17287e-07 2.57554e-07 7.39882e-08
2.70745e-07 2.13892e-07 -1.98821e-07
-1.20815e-08 2.02888e-08 8.54831e-09
-8.30042e-09 2.53549e-08 -1.28811e-09
-8.75531e-09 2.49331e-08 -3.49322e-09
7.22693e-08 2.78777e-08 -7.47551e-08
1.42249e-08 5.37415e-08 -8.21304e-08
7.273e-08 1.09545e-07 -1.75286e-07
-1.04777e-08 6.35277e-08 -6.99852e-08
1.26551e-07 1.96024e-07 1.44229e-08
3.31795e-06 5.53276e-06 -3.43506e-07
2.64633e-08 2.03151e-08 6.64824e-08
1.94394e-08 1.97652e-08 6.80124e-08
1.19778e-06 2.80028e-07 1.59394e-07
3.12596e-06 1.04306e-06 -4.94085e-08
1.36676e-07 2.40321e-07 -9.7241e-08
1.83281e-07 1.41887e-07 -9.28358e-08
1.08156e-07 5.92654e-07 5.07747e-08
-5.38438e-08 9.93033e-07 8.82348e-08
2.17269e-08 7.23044e-08 7.99803e-08
1.63019e-08 7.34441e-08 7.28928e-08
2.11159e-08 2.22588e-08 -4.08899e-08
1.86802e-08 3.47336e-09 -1.60821e-08
1.6193e-08 3.21476e-09 2.31059e-08
1.82681e-08 1.19849e-08 3.89469e-08
1.51104e-08 1.6708e-08 -3.33557e-08
6.57076e-06 3.69688e-06 1.32579e-06
2.38467e-05 1.71905e-05 -1.39032e-05
-4.35556e-09 2.26922e-07 2.83622e-07
-1.19388e-07 1.83793e-07 2.21524e-07
7.94211e-07 1.57773e-06 -2.67628e-07
6.78611e-07 1.89846e-06 -2.27603e-07
0.000135742 9.35198e-06 2.25952e-05
0.000123342 1.07522e-05 2.66133e-05
2.20767e-05 1.49956e-05 -1.20937e-05
6.64609e-06 4.71008e-06 2.24748e-06
-9.03325e-07 7.40079e-07 -1.84565e-07
-9.40415e-07 6.57693e-07 -1.76509e-07
4.39618e-06 3.66182e-06 1.57377e-06
2.10106e-05 1.50988e-05 1.45192e-05
1.91119e-05 1.23034e-05 1.15171e-05
1.40262e-09 -6.27444e-09 2.15643e-08
-2.06413e-08 1.49859e-08 -1.24404e-08
-1.37647e-07 6.71697e-08 6.41196e-08
1.79834e-05 1.22765e-05 1.05153e-05
-2.20868e-07 6.60744e-08 -5.33048e-08
-1.73719e-07 8.19976e-08 2.3882e-08
-4.46714e-07 2.80599e-07 -2.06229e-07
-2.73923e-07 1.60406e-07 -1.24758e-07
-2.15951e-07 8.26985e-08 -1.15329e-08
1.28504e-06 5.06339e-06 -2.02099e-07
9.79956e-09 5.66345e-09 -6.5475e-09
1.01856e-08 7.57718e-09 -1.14348e-08
-1.29588e-08 3.16829e-08 -1.35312e-09
7.9794e-09 2.21196e-08 1.7376e-08
-5.91877e-09 1.48437e-08 9.59841e-09
-1.62953e-08 2.97157e-08 1.12422e-08
-2.00729e-08 2.59397e-08 6.04937e-09
-3.1069e-08 5.39666e-08 -5.23616e-09
4.3172e-08 2.71088e-09 -4.81099e-08
2.62566e-07 3.08019e-07 4.02633e-08
2.66181e-07 1.51588e-07 -1.01295e-07
1.96773e-07 1.85213e-07 1.75373e-08
-2.22907e-08 9.40995e-08 -1.27615e-08
9.50798e-07 4.33125e-07 1.98016e-08
-4.31054e-06 4.08709e-06 2.6137e-06
-3.08778e-06 4.17559e-06 2.55799e-06
-1.11267e-06 6.53828e-08 3.98701e-07
-9.70657e-07 -4.32195e-08 6.00257e-07
1.45371e-06 6.7883e-07 -2.09641e-08
1.33108e-06 2.58209e-07 4.4308e-07
-1.50235e-08 1.00904e-08 5.93631e-08
-5.64922e-07 -1.80466e-08 -5.14569e-07
-9.6503e-07 7.15036e-08 -4.69552e-07
-4.44532e-09 8.17826e-10 5.22655e-09
-1.18362e-08 6.80437e-09 1.32799e-08
-1.10533e-08 -6.58664e-10 -1.80759e-09
1.60179e-07 4.8015e-07 1.24233e-07
1.30753e-07 4.67219e-07 9.69261e-08
-2.65457e-08 2.20499e-08 2.1484e-08
3.37639e-07 2.35645e-07 -2.62514e-07
-3.87937e-08 2.75569e-07 1.28106e-07
-1.43885e-06 2.20326e-06 3.7756e-07
-1.37854e-06 2.06827e-06 3.00859e-07
-1.41135e-07 2.53442e-07 1.29156e-07
-6.66521e-08 1.01145e-06 -7.26891e-08
-4.43784e-09 1.07787e-06 -1.06305e-07
3.14739e-07 5.71422e-07 -3.37603e-08
-2.55469e-08 2.66457e-08 3.35097e-08
1.57007e-06 2.39971e-06 -8.13828e-07
1.73187e-06 1.79762e-06 -3.79015e-07
-3.17144e-08 1.989e-06 -9.09722e-07
-3.26189e-08 3.76515e-09 -8.73391e-09
3.25704e-05 1.99354e-05 2.81116e-05
2.64261e-05 1.94425e-05 2.54622e-05
8.55095e-09 -4.56835e-10 -1.13193e-08
5.02354e-09 7.70013e-08 3.49221e-08
3.73837e-05 2.10626e-05 -2.70495e-05
1.70544e-08 1.3314e-07 6.53179e-08
2.54445e-08 2.79145e-08 5.66863e-08
4.17927e-08 2.37447e-08 5.68113e-08
3.59441e-07 3.58819e-07 -2.89341e-07
2.75108e-08 2.40616e-08 4.46804e-08
2.81594e-06 5.40579e-06 -9.44131e-07
3.44252e-06 4.32042e-06 -6.53114e-07
1.42009e-08 6.65637e-08 8.69132e-08
-1.21516e-08 7.13245e-08 2.08265e-08
-2.64623e-08 1.41679e-08 2.96746e-08
-1.38627e-08 4.02448e-10 8.29878e-09
6.85714e-06 1.45561e-06 -4.21625e-07
8.6014e-06 2.12526e-06 -3.32065e-06
-2.39468e-06 2.07896e-06 1.23894e-07
-1.83919e-07 4.20479e-07 4.92258e-08
2.21016e-06 8.84038e-07 -1.85089e-07
-6.1937e-08 8.30285e-08 7.85727e-09
-2.58888e-08 9.69284e-08 -5.33898e-09
-2.03817e-06 1.79493e-07 6.25554e-07
-2.27863e-06 5.29627e-07 -3.83183e-07
-1.01796e-06 2.42703e-07 -1.03104e-07
-1.19217e-06 1.44207e-07 -4.00751e-07
-7.17826e-08 9.60599e-08 -6.15774e-08
-4.76195e-07 4.08401e-07 4.66328e-09
4.75641e-07 1.60692e-07 -2.46205e-07
4.76073e-07 1.78353e-07 -1.98457e-07
-4.99569e-07 4.22253e-07 1.09473e-08
6.66436e-07 4.6608e-06 7.0643e-08
1.62351e-06 4.04405e-06 9.95968e-09
1.10128e-06 3.70791e-06 1.66312e-07
1.36271e-08 1.5395e-08 5.56928e-08
6.94201e-06 1.49247e-06 1.68281e-07
7.69931e-06 1.64501e-06 -1.0512e-06
-1.34042e-06 6.31823e-06 -1.10612e-06
1.31038e-08 -2.16277e-09 1.55456e-08
1.8501e-06 4.20126e-06 5.31326e-08
3.87679e-06 7.0989e-06 3.65564e-06
4.55425e-06 5.6601e-06 2.47747e-06
7.9987e-06 6.90781e-06 3.26043e-06
1.13924e-07 4.116e-07 7.15257e-08
8.5204e-08 5.24971e-07 5.31816e-08
-3.27113e-07 1.50861e-06 1.73755e-07
-9.38343e-08 8.60606e-07 1.04814e-07
6.51877e-07 2.84939e-07 1.39099e-07
3.56374e-07 5.16285e-07 1.07781e-07
1.84328e-06 6.2503e-07 -2.39293e-08
2.37007e-06 9.6683e-07 3.14484e-07
-3.87834e-08 9.01695e-10 2.97747e-08
-3.31269e-08 -2.69226e-09 1.51541e-08
7.44947e-08 1.77089e-08 -7.90186e-08
5.88882e-08 7.82236e-09 -4.79666e-08
-2.22251e-08 7.34026e-08 1.10529e-07
1.58238e-08 5.99931e-08 1.1758e-07
-1.51793e-08 6.19462e-08 1.03247e-07
2.60645e-07 9.97414e-08 1.97789e-07
3.86369e-07 2.34031e-07 -5.65031e-08
5.40797e-07 2.54633e-07 1.36005e-07
2.30401e-08 7.28733e-08 -7.96273e-08
1.2399e-08 7.43327e-08 -7.59346e-08
-3.13612e-08 5.61778e-07 -3.2668e-07
4.02615e-08 3.31093e-07 -1.97955e-07
-6.53512e-07 3.15429e-06 -5.60689e-07
-1.20025e-06 2.42473e-06 -4.41137e-07
-1.39678e-08 6.13212e-08 -5.43378e-08
2.02097e-07 1.58119e-09 -4.13756e-08
-2.14692e-08 5.54117e-09 1.24295e-08
1.31124e-08 3.21478e-08 -4.98277e-08
-1.30503e-06 3.83161e-06 -1.66712e-07
-7.41059e-08 3.74177e-07 -2.77922e-07
-1.36348e-07 3.2598e-07 -2.29996e-07
1.93703e-05 2.49091e-05 2.4609e-05
1.58732e-06 8.08249e-07 1.14192e-06
7.2649e-05 6.27038e-06 6.64962e-06
8.09378e-05 6.46168e-06 -3.07084e-06
6.74516e-05 6.59578e-06 -1.01577e-05
7.83975e-05 6.25147e-06 -5.01026e-07
1.80135e-06 7.95432e-07 1.0342e-06
1.86137e-05 2.12381e-05 2.02626e-05
1.69545e-05 2.1354e-05 1.88185e-05
4.44976e-08 2.81926e-08 -7.89874e-08
-2.49907e-08 5.58555e-09 -2.75629e-08
-1.2087e-08 4.60932e-09 -5.0737e-08
4.99952e-08 1.75654e-08 -6.53786e-08
2.25597e-08 7.98086e-09 -3.18234e-08
1.34936e-07 2.36243e-07 8.33724e-08
1.01524e-07 3.46741e-07 2.05501e-07
-6.85298e-07 9.65251e-08 2.37721e-07
-1.68967e-05 7.68916e-06 -7.72244e-06
-1.81223e-05 7.50316e-06 -7.90936e-06
-8.26103e-07 8.24547e-07 -2.2859e-07
2.0615e-07 1.98548e-07 -1.60989e-07
3.56574e-07 3.73346e-07 1.08122e-07
1.83832e-07 4.99144e-07 -2.65152e-07
1.73315e-07 2.11557e-07 -1.42156e-07
1.2654e-07 4.58548e-09 7.53749e-08
1.03727e-07 5.47993e-08 1.32408e-07
6.55077e-08 3.29409e-08 8.5644e-08
1.12583e-06 1.51102e-06 -1.02896e-07
1.2505e-06 1.7047e-06 -1.0582e-07
-2.70685e-05 1.65937e-05 -2.62908e-05
-1.08245e-07 2.29092e-07 4.87968e-09
3.48599e-08 6.81483e-09 2.29228e-08
-2.89641e-08 6.93738e-08 1.26125e-07
5.98219e-07 1.80351e-06 -1.91579e-07
6.31868e-07 1.34037e-06 -1.63974e-07
-6.1722e-08 1.03396e-07 -2.12851e-09
1.13208e-07 1.80611e-07 4.66003e-09
-1.21323e-07 1.82896e-07 -1.3554e-08
-1.74815e-05 1.46337e-06 -2.78309e-07
3.4592e-09 1.19632e-07 -5.76892e-08
-3.69332e-09 1.01956e-07 -5.0563e-08
-1.15576e-05 3.06365e-07 -1.43583e-06
7.62235e-07 6.9245e-07 -2.34754e-07
-1.4917e-05 2.90548e-06 2.11582e-06
-1.09381e-08 9.97658e-08 2.60216e-09
1.51769e-06 5.76644e-07 1.01241e-07
1.69307e-06 4.52833e-07 4.28477e-07
2.32631e-09 6.54574e-08 -3.34651e-08
-8.80647e-09 7.7803e-08 2.39394e-08
1.10875e-07 1.97361e-07 -1.16957e-07
1.76286e-08 -1.0606e-08 -1.69063e-08
1.73984e-08 1.20612e-10 -3.55597e-08
4.3296e-07 4.43802e-07 -1.13806e-07
5.34982e-07 3.74262e-07 6.7336e-08
2.49895e-06 1.93205e-06 7.49314e-07
2.94578e-05 2.18047e-05 2.78719e-05
2.3006e-05 2.16267e-05 2.58289e-05
1.8212e-08 8.40628e-10 2.37827e-09
-1.55598e-08 2.62185e-10 -1.64452e-08
2.36805e-05 2.1558e-05 2.40011e-05
3.49069e-07 9.38961e-08 1.49952e-07
1.80842e-07 1.39048e-07 1.65695e-08
-2.10088e-08 5.45753e-08 -1.00702e-09
-1.05596e-07 2.069e-07 1.85829e-07
-9.29864e-08 2.2737e-07 1.86734e-07
-3.7156e-07 3.37081e-06 2.89283e-07
-1.02538e-07 4.45802e-08 4.12477e-08
-2.40803e-08 1.2247e-07 9.67442e-08
-5.82551e-06 2.74437e-05 -4.70033e-05
-3.12985e-06 2.71058e-05 -4.21693e-05
-5.20713e-07 3.3583e-06 3.02049e-07
1.04936e-06 1.15476e-06 -2.20289e-07
-1.64112e-07 2.89516e-06 3.85794e-07
-2.55937e-09 -3.77392e-09 -2.16525e-08
4.16943e-07 7.84e-07 -1.77229e-07
8.21063e-06 3.02188e-05 -2.97862e-05
4.43074e-07 6.13002e-07 -8.13607e-08
8.72147e-07 5.80554e-07 5.75196e-07
5.75383e-08 1.0162e-07 -5.08401e-08
-3.18799e-08 4.61791e-08 3.01433e-08
9.47083e-09 2.37816e-09 -4.26526e-09
-4.28211e-09 3.53635e-09 -2.24958e-08
-2.0176e-05 1.74742e-05 -1.7192e-05
-2.95003e-08 6.10339e-08 9.57937e-08
1.19936e-06 4.6016e-07 -1.3635e-07
-5.66334e-09 -2.79491e-09 1.94472e-09
6.92765e-08 1.32666e-07 1.45433e-07
2.25398e-08 7.42876e-10 2.27733e-08
1.22741e-05 2.17776e-05 -1.6231e-05
2.53169e-07 9.01907e-08 -1.03596e-07
1.25621e-05 2.22225e-05 -1.84517e-05
0.000266608 -4.51467e-07 -2.76881e-05
0.000246383 2.15188e-06 -3.47557e-05
1.62856e-08 9.81925e-08 9.44589e-08
0.000160795 2.0806e-05 -6.12719e-05
1.44055e-08 1.10662e-07 9.07836e-08
-5.76719e-08 7.29369e-08 1.30399e-08
-6.66237e-08 5.32818e-08 -6.82511e-09
4.36344e-08 1.52273e-07 1.28862e-07
9.83524e-07 1.01867e-06 -3.22507e-07
1.45164e-08 2.73627e-11 -9.02988e-09
3.34748e-07 2.56297e-07 -8.13979e-08
3.19557e-05 2.97402e-05 -3.26353e-05
3.36234e-07 1.81827e-07 7.4447e-08
3.40384e-07 1.47206e-07 1.32571e-07
3.45114e-07 1.73625e-07 1.12528e-07
3.18145e-05 2.15859e-05 2.99642e-05
-9.75099e-08 5.23304e-08 -1.95041e-08
-8.56247e-08 4.51113e-08 -4.91437e-08
-1.80633e-07 1.09494e-07 -1.15457e-08
-3.152e-07 2.65919e-07 -6.99768e-08
3.54379e-05 2.49483e-05 3.43307e-05
7.00729e-06 3.89286e-06 -1.25635e-06
3.24536e-06 4.13675e-06 -1.86906e-06
3.61925e-06 4.28777e-06 -1.79735e-06
0.000175955 6.05218e-06 -2.22724e-05
0.000164275 6.83889e-06 -2.02082e-05