# vtk DataFile Version 2.0
S, Created by Mohamad Ibrahim Cheikh
ASCII
DATASET UNSTRUCTURED_GRID
POINTS 10490 double
-223.577 20.3396 -34.7911
-223.727 23.287 -32.7659
-130.488 -29.2928 69.2914
-194.382 -37.8828 -41.0234
-207.466 29.513 40.0416
-235.873 27.4022 13.474
-191.273 -39.7113 -41.0837
14.3646 -3.08247 87.8023
-191.049 39.2374 -41.6624
-193.388 36.9458 -42.4295
-251.146 3.21402 -3.38173
-251.006 5.46372 -0.715358
-204.324 29.3071 -42.1168
18.5533 -1.4316 87.7485
-201.226 30.3663 -43.1792
-151.255 68.7552 -14.6888
-148.441 69.9677 -12.2798
241.381 21.761 -11.7084
240.378 24.3451 -8.78197
38.9496 73.0534 -47.1325
42.8001 72.3156 -47.8557
45.3591 -3.16044 -86.4992
49.2264 -1.48214 -86.2851
-145.562 -45.4898 -55.503
-142.057 -46.9137 -55.4295
-191.797 -27.3607 49.9166
-189.472 -30.0394 49.4613
-64.3407 -67.8316 51.3425
-66.485 -66.0128 53.3399
-121.223 -41.6748 -64.8699
-205.479 44.6126 24.1765
-208.425 41.8773 25.9195
-64.8726 -22.5255 81.9839
-61.2481 -23.8937 81.9379
44.2694 4.25161 86.5216
-201.398 -44.9169 27.5781
-50.3037 82.959 -23.4945
-47.0076 82.6824 -25.2405
-109.54 -78.4117 -11.2497
-105.514 -79.2425 -10.0788
-195.482 42.6475 35.3088
-200.946 -43.0024 30.8404
-54.4212 -15.2632 84.5484
3.48308 8.3569 87.5938
226.254 36.0728 -13.2456
223.493 37.2797 -15.4578
-146.967 22.4418 -67.7934
-143.809 23.72 -68.1863
-167.023 -43.0212 -49.7774
-163.504 -43.4758 -50.8021
-215.265 -7.15492 -44.9387
-215.165 -3.15886 -45.4531
-105.612 -17.5651 77.9095
-104.074 -21.1032 77.2824
-247.961 -12.5206 7.72454
-247.223 -12.2227 10.5723
-226.223 -18.844 33.5161
-129.021 -40.833 -63.5504
238.446 4.07586 -27.6839
236.191 2.11823 -30.1597
30.625 -3.66445 -87.2682
26.6578 -1.91056 -87.4834
-224.96 -22.5379 32.252
-47.6615 -75.8706 41.3466
-235.553 -26.7703 15.3058
-109.964 51.3409 -60.2302
-237.92 -25.2883 13.1995
-16.8502 -1.35904 -87.7917
-20.0151 -3.92502 -87.633
25.2865 7.68438 -87.2162
27.2914 3.83281 -87.3963
25.4 1.80944 -87.5314
45.9419 -6.27401 -86.2915
-242.159 -16.9738 16.6273
249.587 -5.36868 -9.4094
249.11 -2.30241 -11.881
-169.132 48.1757 43.8279
30.4799 -13.444 -86.3106
-165.503 47.9506 45.7299
-244.371 -14.4424 14.9736
243.986 6.92824 20.1946
244.544 3.56466 20.2423
-218.529 -34.2524 26.909
-142.145 -69.4108 21.2702
-139.629 -70.7397 18.787
-221.095 -32.0559 27.0489
-157.97 -59.7991 33.36
-205.032 32.4698 39.2805
-154.318 -61.363 32.604
21.317 7.48347 87.3634
-119.016 18.5833 75.2625
-116.351 20.6797 75.2259
25.5774 -59.0277 64.6501
29.1111 -57.6543 65.698
-134.428 55.1211 -49.9324
-136.692 52.6199 -51.8418
-177.082 57.9267 23.4381
-176.664 59.406 19.8457
-69.2701 65.7425 -53.2396
-62.7033 16.9784 -83.5127
-66.3253 16.9352 -83.1783
-65.7583 67.3425 -51.7647
124.436 57.7548 50.1262
121.001 58.3622 50.451
-132.441 -69.8467 26.7944
-132.815 -68.0006 30.9883
-188.84 35.133 46.3007
-185.093 37.3066 46.4524
-232.725 13.1761 -30.6505
-58.6868 75.7724 39.7601
-59.9955 77.2801 36.4842
-231.926 16.8004 -29.6013
-175.27 -46.9578 -42.1658
-178.779 -11.2208 60.8687
-181.793 -8.37217 60.2307
-195.804 53.762 12.6396
-198.354 52.0757 14.6686
-195.137 -6.40104 -55.146
-196.107 -2.36023 -55.0454
-155.746 25.1096 64.3718
-159.432 22.5088 64.2288
-196.21 -54.5516 -7.39891
-193.182 -56.048 -5.79627
-90.488 75.4129 -32.472
-86.4723 75.8383 -32.819
-39.2325 -78.9662 -36.3303
-42.7332 -77.6529 -38.6063
-35.6776 20.8085 -84.5882
-119.247 -59.0739 -50.1333
-116.052 -58.3856 -51.8288
-103.564 -58.9079 54.4125
-107.458 -57.2144 55.2882
-176.019 46.9254 -41.8185
26.8925 14.1542 -86.343
23.7339 15.873 -86.1573
-175.586 44.5902 -44.5101
-89.4389 -39.5769 72.0993
-93.307 -38.4317 72.1187
-1.70869 -75.0106 -46.0115
2.63038 -75.2474 -45.6178
-158.019 -33.1909 -59.8772
-154.736 -36.6286 -58.915
24.7587 73.3241 47.8804
27.2965 71.3287 50.6457
-166.517 38.8407 53.298
-168.936 36.4712 54.0349
126.631 60.2674 46.3533
124.964 62.2385 44.255
55.8935 20.2809 83.3679
-158.127 12.6707 67.2472
-155.539 9.86349 68.4457
-42.8472 74.3313 -44.6553
70.7991 53.1522 -65.6137
-39.9977 75.9455 -42.195
222.064 -27.8281 -30.5327
225.276 -26.0122 -29.2253
-14.7137 80.6062 -34.9305
-17.7552 79.4371 -37.3517
247.477 -7.06408 13.9945
245.671 -9.07237 16.5073
-182.883 19.8683 57.0475
-181.343 22.7127 56.586
-54.6013 69.3894 50.637
-52.2926 71.2463 48.303
-221.668 26.389 -32.1214
245.288 -12.7014 14.7131
-123.331 -44.6553 -62.3513
-128.466 -46.8973 -59.3642
-126.777 -44.246 -61.7943
-219.064 -11.0501 41.7923
-206.355 49.8862 -6.47843
-208.039 48.5244 -9.51663
-173.56 -35.1358 53.1177
-196.131 -34.866 -42.6471
-56.7847 10.7316 85.0532
-98.7372 80.792 4.80346
-149.826 -21.4614 67.3433
-153.217 -21.7048 66.3234
-104.964 79.9394 2.19485
-102.566 80.1754 5.28899
-208.258 -1.8231 -49.3019
-211.7 -0.421858 -47.5064
7.20848 77.4295 -41.7409
8.19199 75.5842 -44.9757
-11.6253 86.3184 -16.6307
-15.8231 85.6656 -19.3582
11.9538 74.9442 -45.9333
-209.311 34.9132 -34.0773
-209.407 37.4934 -31.1368
-243.667 12.2948 -17.9922
-205.977 40.1058 -30.6799
-237.95 16.7345 23.0634
-240.122 13.5397 22.3945
-198.66 34.6904 41.337
-44.0805 -51.8524 -69.4078
-47.9264 -52.1686 -68.8565
-63.193 78.8896 -32.1173
-59.9744 79.8493 -30.4584
-198.888 37.69 38.4782
-195.367 39.9917 38.3627
193.192 51.8487 -22.0509
191.205 51.6138 -24.5771
-16.744 73.7738 -47.614
-15.9112 71.9446 -50.3684
-160.697 -8.6671 67.1365
-158.238 -5.13572 68.2059
-159.175 -12.181 67.0347
-155.579 -13.9405 67.7219
-181.215 -39.3659 -46.6247
-187.065 -34.8924 -47.3525
234.201 -8.1979 31.0077
231.367 -8.83938 33.3482
-185.722 -37.8039 -45.7376
-220.423 -36.3319 -21.8076
-223.2 -33.1946 -23.2995
-73.4887 69.9587 46.7823
-199.231 43.3854 -31.6555
-202.394 40.5299 -32.9567
-78.3396 72.204 42.1808
-74.416 72.1268 43.171
-199.862 -47.1002 -25.201
-196.405 -49.1625 -24.5824
-156.236 -38.5572 57.1738
-155.211 -34.5991 59.9793
-162.873 56.2849 -36.4445
-159.717 58.1111 -35.2699
245.94 -16.0776 8.95248
246.756 -13.0532 10.9097
-202.183 25.1291 -45.9108
246.469 -16.6405 5.45948
-222.675 -40.729 -3.81049
-219.564 -42.6762 -4.53538
-225.905 36.4595 -12.9114
-224.077 36.2204 -16.8751
-228.9 -34.8682 10.6505
-231.376 -33.577 7.89239
-225.472 -37.7617 9.69432
119.526 74.8308 19.8806
-172.162 -51.1027 -38.7774
115.33 75.6472 19.8257
47.9272 12.1996 -85.5216
51.5127 10.7927 -85.4555
-180.218 -22.168 57.2381
-179.91 52.334 -32.2858
-165.441 0.852454 66.2742
-168.564 2.83182 65.2477
-181.016 -17.4096 58.5597
36.4514 -59.7502 63.3344
37.7861 -57.2031 65.5515
-159.984 -59.9391 -31.9018
-182.766 -21.7965 -56.3856
-184.307 -18.0276 -57.0978
-11.9214 15.2707 -86.5645
-188.59 -54.9976 19.1023
-192.466 -53.1209 19.6707
-145.913 9.35307 -71.0627
-143.719 12.1637 -71.1845
-174.327 52.4469 35.6748
-173.4 50.7387 38.5797
-187.154 39.7412 -43.3164
-231.489 33.5032 -7.79804
-229.084 35.9766 -4.9577
-234.897 30.8765 -5.94588
241.404 7.72136 23.4447
239.892 10.8374 24.1019
240.609 13.4024 21.8297
-138.877 -61.8294 -39.4946
-138.123 -60.1614 -42.2954
-141.494 -58.2478 -43.59
-200.351 -41.1629 -33.6926
-218.713 20.1204 -38.5055
-52.6052 9.18034 85.5624
-56.6791 -81.1825 27.5697
-60.1937 -81.4603 25.7802
-152.581 56.1754 41.6897
-153.304 58.0818 38.6411
-189.41 -9.89214 -57.0423
-186.061 -8.87624 -58.5391
64.9158 -8.69541 84.5722
67.8933 -7.05108 84.439
-196.834 -37.2178 40.1922
-200.414 -34.6081 40.3578
-180.668 -48.245 -37.6855
-174.531 -52.0915 -36.0708
-215.618 -38.5088 23.8566
-218.655 -36.4146 23.7613
-178.254 -50.9813 -35.4224
-121.39 48.0353 -60.2706
-70.6766 60.0577 59.376
26.871 -68.2954 54.6931
24.8057 -66.5835 56.8797
-87.175 -8.55226 -82.1002
-83.9974 -6.23825 -82.712
-28.0848 86.1737 -14.8838
-32.1163 85.7408 -16.3167
-74.5293 60.5075 58.3334
-117.454 49.102 -60.3656
67.071 -10.9505 -84.1031
63.321 -11.5591 -84.3771
-122.212 44.8279 -62.497
-75.5782 64.5249 -53.6768
-79.1522 64.6217 -52.9245
-210.937 -46.4388 -11.8315
-207.911 -47.277 -14.7164
-70.387 -66.9039 51.5879
-81.9365 62.1227 -55.3428
181 57.5742 -20.4519
187.789 54.7445 -20.7263
-57.9978 -57.7619 -63.2118
-60.2553 -59.9454 -60.8772
185.025 56.5078 -18.962
-52.1886 5.05677 85.9359
170.803 -60.9398 -21.4147
166.658 -61.8362 -22.7994
-242.161 -11.2299 20.9365
-241.443 -7.71387 23.3975
231.622 25.8613 -22.5151
229.371 25.181 -25.8601
225.984 27.6881 -26.9256
-235.385 -18.9681 -24.5117
-234.849 -16.6286 -26.7391
-226.06 27.1708 -27.3706
-222.944 28.4654 -29.1279
-220.763 31.381 -28.1502
-250.634 -7.29256 -0.17879
-176.024 45.318 43.5526
58.5717 51.3509 -68.4622
59.6821 48.5243 -70.3797
128.082 68.3819 32.549
131.578 68.3034 30.9684
-176.897 47.633 40.5453
-181.003 46.7607 39.324
18.7046 -86.4177 15.2691
142.021 69.3638 -21.5227
141.074 68.3978 -25.0825
23.2384 -86.1703 15.8922
181.098 -44.0243 42.3153
25.6365 -86.6619 12.3796
-189.022 21.6559 -53.8579
-189.443 17.9095 -55.0398
-212.327 -45.014 14.0799
-120.841 -46.9977 -61.2163
-24.3218 -37.2668 79.2639
52.2815 18.5851 -84.0473
55.7971 16.7957 -84.1471
-25.2942 -41.1164 77.2988
-119.139 -6.51007 -77.2258
-115.758 -7.7245 -77.7417
-200.042 16.4872 50.7239
-215.149 -43.2636 14.3209
-153.391 33.1058 61.379
-156.81 31.405 61.2146
-157.699 28.2602 62.4552
-79.9684 -83.4308 0.602721
-62.3189 73.4852 -43.2256
-61.7953 71.4219 -46.641
-79.8043 -83.3553 -4.02135
-209.642 -18.6798 44.8809
-58.9327 72.0689 46.0962
-205.671 -19.6711 46.671
-191.283 -46.3878 33.355
-190.153 -45.0072 35.9376
-195.123 47.3334 29.0216
-192.216 -42.6375 37.4515
-97.6179 19.9601 78.6061
-94.0045 21.0947 78.8487
-195.846 -41.8708 35.9854
-247.68 -8.81032 12.4838
188.064 -42.0214 40.5963
184.929 -44.2656 39.9696
-127.004 75.5435 7.89736
-123.327 76.0925 9.58203
48.8079 1.74195 86.3094
130.442 15.6025 -73.6029
-179.649 46.5469 -40.3247
198.594 13.1823 52.3606
200.49 9.43604 52.2852
113.305 74.9007 23.7093
109.557 75.3618 24.3947
149.538 63.7488 -30.6977
145.705 65.3577 -29.5497
-166.877 -45.6675 -47.4243
129.833 19.366 -72.8368
-209.791 43.7114 -21.0916
-206.931 46.1351 -19.314
126.457 20.2186 -73.3306
-61.8746 -0.204918 85.295
-59.1384 2.70034 85.4899
-53.8171 -1.89399 85.9408
[...]
POINT_DATA 10490
VECTORS F double
1.36922e-08 3.05578e-08 7.09076e-09
1.22104e-07 8.68007e-08 -4.03849e-08
1.46687e-07 7.11894e-07 3.34773e-07
5.62679e-08 -7.50432e-09 -2.57128e-08
2.81946e-07 2.48223e-07 -4.10371e-09
1.76384e-07 1.88263e-07 -4.83672e-09
8.18718e-08 2.47303e-08 -7.05707e-08
-1.87344e-06 2.39514e-06 1.21611e-07
9.06226e-07 6.81215e-07 1.32786e-07
9.76085e-07 5.96424e-07 -2.53354e-08
1.17936e-08 7.14118e-08 -3.93816e-08
1.03185e-08 5.56279e-08 -1.84451e-08
1.02726e-07 3.38952e-07 1.74844e-07
-2.28508e-06 3.86171e-06 1.22156e-07
1.4093e-07 1.23956e-07 6.76473e-09
3.31503e-06 7.12256e-07 -8.45366e-07
4.2323e-06 8.08227e-07 -1.65861e-06
-1.23478e-08 2.32141e-08 1.19828e-08
-1.44717e-08 2.25457e-08 1.40054e-08
-2.87559e-05 7.97962e-06 9.45871e-06
-2.85791e-05 5.4677e-06 5.13302e-06
-3.2526e-06 1.97743e-06 -2.81069e-07
-2.96518e-06 1.49674e-06 -2.32819e-07
3.05292e-08 2.11044e-07 -1.82773e-07
5.67278e-08 2.38147e-07 -2.1936e-07
1.69138e-08 1.6573e-07 9.87984e-08
2.08175e-09 1.41656e-07 8.70083e-08
-4.53973e-08 1.93359e-07 2.48493e-07
-1.89813e-07 1.50131e-07 1.56834e-07
2.46207e-07 2.04807e-07 -1.87905e-07
5.43384e-07 2.46938e-07 1.09751e-07
3.65856e-07 2.69727e-07 -7.56033e-08
1.61815e-07 2.90348e-06 8.13423e-07
-2.11655e-07 1.67157e-06 4.68075e-07
-1.99402e-06 2.98484e-06 -2.17618e-08
1.52212e-08 2.8428e-08 5.99103e-08
7.60902e-05 1.24503e-05 2.40157e-05
8.1895e-05 1.43902e-05 2.84658e-05
3.97868e-08 2.87758e-10 -4.94379e-08
3.44906e-08 -2.82867e-09 -2.19639e-08
6.24115e-07 3.39762e-07 1.26596e-08
2.78462e-08 2.89811e-08 6.26233e-08
2.41296e-07 2.78506e-06 5.21792e-07
-1.60835e-06 3.74666e-06 -3.4962e-07
-2.46487e-08 1.48094e-08 -1.12171e-08
-4.14929e-08 3.73706e-08 1.66811e-08
1.24115e-06 8.47674e-07 -4.88107e-08
1.12062e-06 1.46252e-06 2.19406e-07
-4.9657e-08 1.00156e-07 -6.61633e-08
-4.31081e-08 1.12533e-07 -7.9319e-08
5.168e-08 1.40962e-07 -5.27518e-08
6.74038e-08 1.49683e-07 -4.9468e-08
9.43868e-07 2.24855e-06 6.63598e-07
1.04984e-06 2.18673e-06 7.70215e-07
-3.90407e-08 9.56409e-08 1.59758e-09
-2.73729e-08 7.22747e-08 5.19494e-09
5.93317e-08 9.568e-08 1.02824e-07
1.75745e-07 3.5088e-08 -6.62286e-08
-2.00643e-08 1.33338e-08 -1.9194e-08
-1.90838e-08 8.29096e-09 -1.7714e-08
-2.50401e-06 3.12094e-06 -2.38631e-07
-2.30641e-06 3.99982e-06 -1.73395e-07
1.41807e-08 8.56417e-08 7.19563e-08
-3.88413e-08 5.70587e-08 9.92209e-08
-1.05459e-08 1.22359e-08 1.52936e-09
1.0267e-05 5.66404e-06 2.53316e-06
-2.0286e-08 3.63393e-08 2.4856e-08
-1.99575e-07 4.78206e-06 -6.93357e-08
3.01009e-07 3.8527e-06 -1.80975e-07
-9.37024e-07 6.65899e-06 5.53447e-07
-3.20295e-06 5.33844e-06 1.11668e-07
-2.20476e-06 4.1969e-06 8.43089e-09
-1.35856e-06 2.26927e-06 -2.53545e-07
5.86197e-09 4.41658e-08 5.5539e-08
2.71639e-09 1.37681e-08 9.75552e-10
-3.6624e-09 4.97574e-09 -1.03638e-08
4.07977e-07 3.70093e-07 -2.14051e-07
9.9886e-07 1.72153e-06 -2.24962e-07
5.54934e-07 5.42467e-07 -3.2292e-07
1.39125e-09 2.83256e-08 3.01034e-08
-1.03668e-08 1.14437e-08 1.14072e-08
-3.03971e-09 1.17417e-08 2.42845e-09
2.03457e-08 1.53054e-08 3.97111e-08
2.74242e-08 6.41326e-09 4.33662e-08
1.42634e-08 3.61168e-09 2.65797e-08
1.68754e-08 1.77934e-08 3.79748e-08
4.00614e-08 3.41617e-08 8.44604e-08
2.40048e-07 2.84639e-07 -8.18837e-08
4.15653e-08 2.92412e-08 7.91206e-08
-6.78938e-07 4.61548e-06 -3.75075e-07
2.13783e-06 2.62387e-06 -2.3397e-07
2.00157e-06 3.04529e-06 -4.58132e-07
-2.44452e-08 2.03161e-07 1.86677e-07
-6.8487e-08 2.9796e-07 2.65195e-07
4.48723e-06 2.62899e-06 1.42315e-06
5.12961e-06 2.2943e-06 6.72824e-07
4.5511e-07 3.285e-07 -3.90896e-07
1.23229e-06 5.47509e-07 -2.95879e-07
2.2553e-05 1.65074e-05 1.67914e-05
1.84085e-06 2.26301e-06 2.90862e-07
1.60918e-06 1.03373e-06 5.33739e-08
2.19716e-05 1.82616e-05 2.03399e-05
-1.08194e-06 3.63358e-07 -8.98186e-08
-1.14236e-06 4.3739e-07 -1.70533e-07
4.29594e-09 1.34726e-08 3.77187e-08
3.96483e-10 1.86471e-08 4.11276e-08
9.82371e-07 5.25811e-07 9.15523e-08
9.82413e-07 6.29046e-07 -2.59412e-08
5.85631e-08 8.25031e-08 -1.89738e-08
4.10344e-05 1.82392e-05 -2.73436e-05
4.10329e-05 1.80041e-05 -2.98747e-05
3.39341e-08 8.50175e-08 1.5699e-08
4.34412e-08 -2.24249e-08 2.86597e-09
4.43644e-07 3.79163e-07 2.29429e-07
2.23941e-07 1.42691e-07 1.02587e-07
6.41298e-07 3.48621e-07 -2.66548e-07
7.69184e-07 3.67396e-07 -3.08863e-08
-5.41576e-09 1.13805e-07 -1.08633e-08
1.20129e-07 1.56933e-07 -5.91264e-08
4.05719e-07 2.23344e-06 -7.51017e-07
1.18783e-06 9.42213e-07 3.07899e-08
8.20264e-09 -2.11068e-09 -1.10683e-08
-1.06546e-09 -8.03976e-10 1.21245e-08
2.42962e-05 6.66829e-06 7.19722e-06
2.54471e-05 8.22559e-06 1.07989e-05
-4.29775e-08 5.05928e-08 -1.04286e-07
-2.86059e-08 6.55466e-08 -1.27964e-07
9.15239e-07 9.02985e-06 2.17406e-06
1.26662e-07 1.5334e-07 -2.17572e-07
1.24143e-07 1.77823e-07 -2.34351e-07
4.31415e-08 1.5187e-07 1.74471e-07
8.96396e-08 2.42397e-07 2.72173e-07
2.20887e-06 6.94658e-07 -3.58794e-07
-6.32115e-07 6.24818e-06 1.00016e-06
-2.18978e-06 3.92706e-06 6.49645e-07
7.53136e-07 1.43636e-07 -2.1985e-07
2.61952e-07 5.86312e-07 3.61624e-07
3.1505e-07 8.80383e-07 5.19057e-07
-6.33238e-08 8.45963e-08 -1.37625e-07
-6.19296e-08 6.1764e-08 -1.02319e-07
1.22343e-07 2.29395e-07 -1.66687e-07
2.75836e-08 1.44856e-07 -9.89292e-08
-2.22468e-05 1.65561e-05 -2.39457e-05
-2.70101e-05 1.42943e-05 -1.83496e-05
2.52513e-06 1.1267e-06 1.448e-07
2.21291e-06 1.28126e-06 -1.77546e-08
-6.06173e-07 1.62969e-07 -9.14018e-09
-1.41683e-06 3.9722e-08 4.33957e-07
-1.24611e-06 1.20918e-06 -1.91873e-07
9.40809e-07 9.90333e-07 8.42486e-08
2.76226e-07 2.7479e-07 3.7253e-08
4.52811e-05 2.65032e-05 3.87966e-05
-6.30746e-06 3.39953e-06 1.92063e-06
5.42881e-05 2.32884e-05 3.56156e-05
-2.68443e-09 8.42271e-09 -1.00666e-08
-1.76641e-09 6.60015e-09 -7.54054e-09
0.000117809 2.77024e-05 5.78505e-05
0.000104698 3.15327e-05 6.09682e-05
-7.23329e-10 -3.85757e-10 1.37197e-09
-1.28608e-09 8.27374e-10 2.796e-09
3.7968e-07 5.41229e-07 -3.94767e-08
3.37665e-07 5.90089e-07 -1.04366e-07
3.54531e-05 2.62593e-05 -3.13034e-05
3.92102e-05 2.51625e-05 -3.19173e-05
1.90689e-07 7.58191e-08 -9.88233e-08
-4.18904e-09 -1.66649e-09 7.1114e-09
2.37588e-07 1.87081e-07 -1.91521e-07
1.42262e-08 1.2498e-07 -1.02503e-07
2.20847e-07 3.57243e-08 -8.10518e-08
1.98525e-09 1.31849e-07 3.61356e-08
5.22857e-07 2.79283e-07 1.11561e-07
5.66161e-07 3.04913e-07 3.94383e-08
9.84941e-08 1.3819e-07 1.3081e-07
8.82955e-08 3.74458e-09 -5.27759e-08
2.32658e-06 3.64195e-06 -2.69346e-07
2.60488e-05 4.0259e-06 -2.15849e-06
-3.20458e-08 2.74095e-07 7.86223e-08
-6.4314e-08 3.6934e-07 1.0268e-07
2.27736e-05 3.76854e-06 -3.91507e-06
2.46163e-05 4.12875e-06 -4.14268e-06
4.64709e-08 9.12633e-08 -2.74075e-08
6.4513e-08 1.80847e-07 -3.68033e-08
5.79502e-05 3.82278e-05 7.21382e-05
1.2888e-05 3.37538e-05 5.70127e-05
0.000182827 7.15034e-06 2.14644e-05
0.000166661 8.38685e-06 2.04351e-05
1.40395e-05 3.18211e-05 5.23663e-05
2.91025e-07 2.15629e-07 2.06677e-09
8.18443e-07 4.45259e-07 -1.37744e-07
1.01152e-07 1.73952e-07 -4.88494e-08
7.40195e-07 5.61206e-07 1.25211e-07
6.80288e-08 1.99377e-07 -5.87341e-08
8.0341e-08 1.67958e-07 3.92029e-09
4.09948e-07 -1.60603e-07 3.75989e-07
4.3297e-07 3.20351e-07 -2.7299e-07
3.98647e-07 4.03342e-07 -3.39559e-07
5.08733e-05 1.54778e-05 2.57629e-05
5.47666e-05 1.4451e-05 2.46816e-05
6.73848e-07 -2.53227e-08 4.51232e-07
5.04057e-07 2.844e-07 1.78014e-08
-8.38807e-08 3.96465e-08 3.24831e-09
-1.16632e-07 6.31695e-08 2.15699e-08
4.66423e-05 4.26604e-05 6.40905e-05
2.20602e-05 3.91196e-05 5.5024e-05
7.34906e-07 4.12658e-07 2.68635e-07
8.9789e-07 3.43174e-07 2.80878e-07
2.04743e-07 1.57101e-07 8.80682e-08
3.18415e-07 3.65009e-07 1.64695e-07
9.88606e-08 9.53089e-08 -1.27512e-07
1.11733e-07 7.4091e-08 -1.08636e-07
1.52343e-09 1.07877e-08 1.44258e-09
1.08429e-09 1.06173e-08 1.89308e-09
8.53918e-08 6.08881e-08 -9.27788e-08
3.47896e-09 2.3146e-09 -8.1617e-09
-1.10419e-09 4.373e-09 -4.93385e-09
2.71079e-05 1.27925e-05 -1.39165e-05
7.53387e-07 5.92195e-07 2.31111e-07
7.77757e-07 5.60043e-07 1.03961e-07
2.36311e-05 9.21883e-06 -1.04072e-05
2.65212e-05 1.26998e-05 -1.56208e-05
3.99223e-09 1.32193e-08 -2.85835e-08
4.59014e-10 7.0513e-09 -1.45521e-08
7.09442e-08 2.65136e-07 2.02539e-07
2.04443e-07 2.46093e-07 2.0673e-07
1.53985e-06 1.0529e-06 7.83565e-07
1.91219e-06 9.45583e-07 4.97793e-07
2.05065e-09 7.36515e-09 6.3225e-09
6.97754e-10 7.8962e-09 7.51262e-09
3.16407e-07 2.26224e-07 -4.67725e-08
6.69324e-10 3.20283e-09 6.05948e-09
-2.76158e-08 1.93776e-08 -9.55099e-09
-2.09526e-08 9.60973e-09 3.376e-08
2.97699e-07 2.27894e-07 5.82464e-09
3.836e-07 2.98721e-07 1.75439e-08
1.27031e-08 -1.80049e-09 2.75289e-08
-1.87157e-09 1.13321e-08 4.14989e-08
2.13589e-09 -5.47508e-09 -1.52404e-08
-1.99321e-06 2.08951e-07 6.80701e-07
5.06553e-08 -1.98909e-08 -1.32126e-09
-2.06585e-06 2.62611e-07 4.69327e-07
5.69351e-07 1.56824e-06 2.62774e-07
4.91986e-07 1.06882e-06 1.71298e-07
1.13652e-07 3.1318e-07 1.65105e-07
1.46318e-06 5.06614e-07 -1.77034e-07
4.67806e-07 2.10411e-07 1.40268e-07
4.79145e-07 2.92105e-07 1.38873e-07
1.5781e-07 3.39274e-07 1.60588e-07
-3.89785e-08 1.98265e-07 1.89791e-07
-1.85955e-08 2.09991e-07 1.8456e-07
4.17273e-08 1.08557e-08 -4.60165e-08
6.81453e-08 6.25e-08 -5.12028e-08
2.15958e-07 1.18751e-07 -1.2284e-07
5.20404e-07 8.60724e-06 1.50962e-06
7.55184e-09 9.63674e-09 3.68724e-08
2.52267e-09 8.33643e-09 2.55355e-08
1.02965e-06 7.27805e-07 -1.6305e-07
8.14147e-07 1.00227e-06 -2.99803e-08
1.64166e-06 1.02422e-06 -5.23588e-07
1.22921e-06 8.18172e-07 -3.99625e-07
1.01762e-06 9.70173e-07 3.51799e-07
3.41587e-07 2.88552e-07 -1.7564e-09
3.16069e-07 2.5655e-07 7.36121e-08
2.69694e-07 2.13077e-07 -1.97952e-07
-1.22888e-08 2.06982e-08 8.67516e-09
-8.42278e-09 2.58623e-08 -1.36552e-09
-8.89045e-09 2.54228e-08 -3.61224e-09
7.23037e-08 2.78394e-08 -7.47112e-08
1.43774e-08 5.36626e-08 -8.20787e-08
7.27754e-08 1.09376e-07 -1.75077e-07
-1.03992e-08 6.33496e-08 -6.98247e-08
1.26214e-07 1.95326e-07 1.42937e-08
3.30283e-06 5.48571e-06 -3.39968e-07
2.64364e-08 2.02114e-08 6.61685e-08
1.94524e-08 1.96515e-08 6.7656e-08
1.20206e-06 2.8576e-07 1.5358e-07
3.10187e-06 1.0376e-06 -5.29576e-08
1.36444e-07 2.39638e-07 -9.70265e-08
1.82906e-07 1.41562e-07 -9.26401e-08
1.04065e-07 5.93321e-07 5.12237e-08
-5.64901e-08 9.9033e-07 8.82586e-08
2.16528e-08 7.20666e-08 7.97154e-08
1.62469e-08 7.31976e-08 7.26469e-08
2.11273e-08 2.21942e-08 -4.08143e-08
1.86972e-08 3.44654e-09 -1.60543e-08
1.61592e-08 3.18999e-09 2.30302e-08
1.82283e-08 1.19325e-08 3.88235e-08
1.51303e-08 1.66526e-08 -3.3289e-08
6.5159e-06 3.67465e-06 1.32195e-06
2.35885e-05 1.70175e-05 -1.37753e-05
-4.23167e-09 2.2658e-07 2.83185e-07
-1.19102e-07 1.83513e-07 2.21179e-07
7.94877e-07 1.57725e-06 -2.67632e-07
6.78157e-07 1.89951e-06 -2.2758e-07
0.000134348 9.15553e-06 2.19706e-05
0.000122055 1.05257e-05 2.58965e-05
2.18398e-05 1.48503e-05 -1.19874e-05
6.5949e-06 4.6659e-06 2.22427e-06
-9.08862e-07 7.43287e-07 -1.85515e-07
-9.46525e-07 6.6309e-07 -1.77803e-07
4.36618e-06 3.63965e-06 1.56534e-06
2.08313e-05 1.49487e-05 1.43789e-05
1.89546e-05 1.21856e-05 1.14081e-05
1.4225e-09 -6.27161e-09 2.15119e-08
-2.05711e-08 1.49395e-08 -1.24124e-08
-1.37042e-07 6.69613e-08 6.39493e-08
1.78383e-05 1.21555e-05 1.04112e-05
-2.17888e-07 6.47142e-08 -5.39093e-08
-1.71829e-07 8.11463e-08 2.37264e-08
-4.46844e-07 2.81242e-07 -2.068e-07
-2.73792e-07 1.60845e-07 -1.25205e-07
-2.13599e-07 8.16303e-08 -1.19128e-08
1.29023e-06 5.02095e-06 -1.99516e-07
9.94646e-09 5.76577e-09 -6.69425e-09
1.03327e-08 7.69271e-09 -1.16163e-08
-1.29075e-08 3.15496e-08 -1.35199e-09
7.95097e-09 2.20228e-08 1.73071e-08
-5.97091e-09 1.50825e-08 9.80465e-09
-1.65173e-08 3.02304e-08 1.15017e-08
-2.03372e-08 2.63538e-08 6.20323e-09
-3.09549e-08 5.37881e-08 -5.23182e-09
4.30597e-08 2.68778e-09 -4.79732e-08
2.61651e-07 3.06858e-07 4.00406e-08
2.65265e-07 1.51123e-07 -1.00889e-07
1.96286e-07 1.84576e-07 1.7297e-08
-2.22165e-08 9.37883e-08 -1.27293e-08
9.47235e-07 4.30671e-07 2.05857e-08
-4.3581e-06 4.09301e-06 2.61354e-06
-3.12873e-06 4.18429e-06 2.5601e-06
-1.06906e-06 5.19028e-08 4.06008e-07
-9.33993e-07 -5.11366e-08 5.98641e-07
1.446e-06 6.74495e-07 -2.00036e-08
1.32427e-06 2.58174e-07 4.39271e-07
-1.49902e-08 1.00762e-08 5.92791e-08
-5.44961e-07 -2.1981e-08 -5.11116e-07
-9.34167e-07 6.48131e-08 -4.66537e-07
-4.40171e-09 7.90849e-10 5.07586e-09
-1.18533e-08 6.90003e-09 1.33898e-08
-1.10438e-08 -6.82858e-10 -1.98401e-09
1.59634e-07 4.78311e-07 1.23733e-07
1.30761e-07 4.65393e-07 9.63319e-08
-2.64706e-08 2.19846e-08 2.14146e-08
3.37612e-07 2.35431e-07 -2.6234e-07
-3.70359e-08 2.75471e-07 1.28124e-07
-1.44098e-06 2.20955e-06 3.78851e-07
-1.38106e-06 2.07329e-06 3.0171e-07
-1.39562e-07 2.53455e-07 1.29226e-07
-6.46793e-08 1.00935e-06 -7.28711e-08
-2.28942e-09 1.07634e-06 -1.0653e-07
3.13557e-07 5.68638e-07 -3.34332e-08
-2.5473e-08 2.65672e-08 3.34071e-08
1.56277e-06 2.37788e-06 -8.04396e-07
1.71981e-06 1.78738e-06 -3.77606e-07
-2.51214e-08 1.97725e-06 -9.02445e-07
-3.25445e-08 3.75521e-09 -8.87839e-09
3.23965e-05 1.96633e-05 2.77101e-05
2.63444e-05 1.91805e-05 2.5098e-05
8.58619e-09 -4.54015e-10 -1.14625e-08
5.00933e-09 7.67122e-08 3.47941e-08
3.70027e-05 2.08074e-05 -2.67393e-05
1.69961e-08 1.32702e-07 6.51023e-08
2.53735e-08 2.78241e-08 5.65102e-08
4.16519e-08 2.3677e-08 5.66345e-08
3.58511e-07 3.57332e-07 -2.8769e-07
2.74227e-08 2.39938e-08 4.45473e-08
2.80143e-06 5.34566e-06 -9.31462e-07
3.40825e-06 4.31979e-06 -6.58206e-07
1.41611e-08 6.63496e-08 8.6637e-08
-1.21148e-08 7.10922e-08 2.07474e-08
-2.66227e-08 1.43258e-08 2.99284e-08
-1.39054e-08 4.33788e-10 8.3578e-09
6.82867e-06 1.45064e-06 -4.31238e-07
8.55849e-06 2.11516e-06 -3.31063e-06
-2.38185e-06 2.07514e-06 1.23025e-07
-1.84887e-07 4.20078e-07 4.89336e-08
2.19615e-06 8.78571e-07 -1.83727e-07
-6.23587e-08 8.40291e-08 7.80152e-09
-2.59646e-08 9.81057e-08 -5.5164e-09
-1.94492e-06 1.60103e-07 6.32195e-07
-2.17727e-06 4.92232e-07 -3.23458e-07
-9.93729e-07 2.33298e-07 -1.08181e-07
-1.1636e-06 1.36624e-07 -4.00273e-07
-7.15863e-08 9.58659e-08 -6.14751e-08
-4.78132e-07 4.07693e-07 4.05363e-09
4.74048e-07 1.60211e-07 -2.45257e-07
4.74607e-07 1.77807e-07 -1.97832e-07
-5.01496e-07 4.20724e-07 1.01214e-08
6.63553e-07 4.62435e-06 7.00457e-08
1.60802e-06 4.01755e-06 9.29031e-09
1.09165e-06 3.69182e-06 1.65058e-07
1.35984e-08 1.53441e-08 5.55305e-08
6.89769e-06 1.48321e-06 1.56314e-07
7.64932e-06 1.63462e-06 -1.05307e-06
-1.3188e-06 6.28486e-06 -1.10035e-06
1.30766e-08 -2.16396e-09 1.55008e-08
1.83504e-06 4.18172e-06 5.21659e-08
3.89717e-06 7.04072e-06 3.61817e-06
4.5482e-06 5.6422e-06 2.46883e-06
7.94492e-06 6.85211e-06 3.23334e-06
1.13804e-07 4.10189e-07 7.13715e-08
8.54383e-08 5.2265e-07 5.31453e-08
-3.27098e-07 1.50469e-06 1.73367e-07
-9.49726e-08 8.60376e-07 1.04898e-07
6.49343e-07 2.83937e-07 1.37958e-07
3.55298e-07 5.14023e-07 1.07464e-07
1.83805e-06 6.23135e-07 -2.41013e-08
2.35848e-06 9.60334e-07 3.09444e-07
-3.89194e-08 8.91733e-10 2.98384e-08
-3.32239e-08 -2.72355e-09 1.51211e-08
7.4526e-08 1.76861e-08 -7.89839e-08
5.89225e-08 7.8039e-09 -4.79476e-08
-2.22009e-08 7.31401e-08 1.10122e-07
1.57962e-08 5.97616e-08 1.17136e-07
-1.5105e-08 6.17056e-08 1.02848e-07
2.59899e-07 9.95524e-08 1.96856e-07
3.85027e-07 2.33184e-07 -5.61981e-08
5.38547e-07 2.53662e-07 1.35064e-07
2.30656e-08 7.26958e-08 -7.94735e-08
1.24189e-08 7.41275e-08 -7.5762e-08
-3.03121e-08 5.6151e-07 -3.26695e-07
4.12142e-08 3.31322e-07 -1.98241e-07
-6.64613e-07 3.14083e-06 -5.57655e-07
-1.20446e-06 2.42264e-06 -4.40569e-07
-1.38854e-08 6.11468e-08 -5.4214e-08
2.02404e-07 2.08029e-09 -4.15646e-08
-2.16076e-08 5.66362e-09 1.25453e-08
1.31153e-08 3.20536e-08 -4.97159e-08
-1.28474e-06 3.81328e-06 -1.65927e-07
-7.37758e-08 3.75682e-07 -2.79048e-07
-1.36188e-07 3.2743e-07 -2.31035e-07
1.93588e-05 2.46309e-05 2.43336e-05
1.58152e-06 8.04057e-07 1.13228e-06
7.19709e-05 6.20331e-06 6.57638e-06
8.01519e-05 6.38898e-06 -3.01211e-06
6.68724e-05 6.52265e-06 -9.97681e-06
7.76372e-05 6.18077e-06 -4.81855e-07
1.7971e-06 7.91693e-07 1.02163e-06
1.86024e-05 2.10356e-05 2.00653e-05
1.68996e-05 2.11683e-05 1.86578e-05
4.44189e-08 2.81078e-08 -7.87974e-08
-2.49506e-08 5.58701e-09 -2.76667e-08
-1.20539e-08 4.61072e-09 -5.0824e-08
4.99054e-08 1.75124e-08 -6.52302e-08
2.25427e-08 7.95101e-09 -3.17611e-08
1.34692e-07 2.35469e-07 8.29704e-08
1.01578e-07 3.45264e-07 2.04318e-07
-6.72414e-07 9.25259e-08 2.38297e-07
-1.68233e-05 7.68566e-06 -7.72868e-06
-1.80261e-05 7.57335e-06 -8.01264e-06
-8.25255e-07 8.30041e-07 -2.30092e-07
2.05951e-07 1.98278e-07 -1.60793e-07
3.55135e-07 3.71669e-07 1.07704e-07
1.83819e-07 4.98038e-07 -2.64685e-07
1.73359e-07 2.11351e-07 -1.42081e-07
1.26159e-07 4.56203e-09 7.51335e-08
1.03415e-07 5.46156e-08 1.31982e-07
6.53111e-08 3.28274e-08 8.53639e-08
1.12667e-06 1.50966e-06 -1.02967e-07
1.25141e-06 1.70336e-06 -1.05887e-07
-2.6272e-05 1.72275e-05 -2.74544e-05
-1.08633e-07 2.30211e-07 4.94929e-09
3.47967e-08 6.75939e-09 2.28009e-08
-2.88128e-08 6.91152e-08 1.25666e-07
5.98796e-07 1.80079e-06 -1.91404e-07
6.32937e-07 1.34258e-06 -1.64224e-07
-6.17788e-08 1.03797e-07 -2.0735e-09
1.128e-07 1.79951e-07 4.63508e-09
-1.21783e-07 1.84049e-07 -1.35362e-08
-1.74403e-05 1.4945e-06 -2.22313e-07
3.62056e-09 1.20716e-07 -5.81814e-08
-3.54771e-09 1.02844e-07 -5.09637e-08
-1.16283e-05 3.49585e-07 -1.37861e-06
7.58808e-07 6.88878e-07 -2.33268e-07
-1.49273e-05 2.89303e-06 2.09642e-06
-1.09011e-08 9.94345e-08 2.59686e-09
1.50738e-06 5.7411e-07 9.84741e-08
1.68215e-06 4.50791e-07 4.24504e-07
2.31779e-09 6.52332e-08 -3.33553e-08
-8.78088e-09 7.75368e-08 2.38495e-08
1.1046e-07 1.96613e-07 -1.16508e-07
1.75945e-08 -1.05909e-08 -1.68638e-08
1.73671e-08 1.06404e-10 -3.54643e-08
4.3124e-07 4.41705e-07 -1.13033e-07
5.32601e-07 3.72574e-07 6.70512e-08
2.48911e-06 1.92114e-06 7.4345e-07
2.93509e-05 2.1525e-05 2.75021e-05
2.29445e-05 2.13484e-05 2.54868e-05
1.83331e-08 8.5196e-10 2.16017e-09
-1.55336e-08 2.82101e-10 -1.67172e-08
2.3666e-05 2.1312e-05 2.3715e-05
3.47621e-07 9.36636e-08 1.49241e-07
1.8038e-07 1.3857e-07 1.66065e-08
-2.09391e-08 5.43964e-08 -1.00032e-09
-1.05078e-07 2.06564e-07 1.85518e-07
-9.22918e-08 2.27046e-07 1.86455e-07
-3.62972e-07 3.35283e-06 2.88068e-07
-1.02601e-07 4.49169e-08 4.13941e-08
-2.40144e-08 1.22049e-07 9.64035e-08
-3.44455e-06 2.76762e-05 -4.75617e-05
-6.80208e-07 2.73244e-05 -4.26351e-05
-5.11355e-07 3.33997e-06 3.00756e-07
1.04499e-06 1.15023e-06 -2.1952e-07
-1.59787e-07 2.88172e-06 3.84184e-07
-2.55085e-09 -3.7644e-09 -2.15693e-08
4.22472e-07 7.84374e-07 -1.7596e-07
8.38998e-06 2.98194e-05 -2.94055e-05
4.44991e-07 6.17932e-07 -8.245e-08
8.6907e-07 5.77701e-07 5.70837e-07
5.73446e-08 1.0126e-07 -5.06821e-08
-3.17796e-08 4.60341e-08 3.00603e-08
9.59022e-09 2.42086e-09 -4.40348e-09
-4.28121e-09 3.59183e-09 -2.2789e-08
-2.01909e-05 1.73769e-05 -1.71024e-05
-2.94064e-08 6.084e-08 9.54975e-08
1.19373e-06 4.58259e-07 -1.34855e-07
-5.71135e-09 -2.82049e-09 1.9411e-09
6.90068e-08 1.32205e-07 1.44917e-07
2.24842e-08 7.26932e-10 2.2698e-08
1.21059e-05 2.1526e-05 -1.60566e-05
2.53167e-07 9.04645e-08 -1.03741e-07
1.24496e-05 2.1962e-05 -1.82454e-05
0.000263381 -5.98614e-07 -2.67468e-05
0.000243505 1.96926e-06 -3.38235e-05
1.62302e-08 9.7861e-08 9.41391e-08
0.000160382 1.99283e-05 -5.88643e-05
1.43584e-08 1.10285e-07 9.04748e-08
-5.77312e-08 7.35742e-08 1.3385e-08
-6.68972e-08 5.37026e-08 -6.74483e-09
4.34753e-08 1.51736e-07 1.28403e-07
9.81161e-07 1.01612e-06 -3.21705e-07
1.4542e-08 6.74975e-12 -9.01247e-09
3.33516e-07 2.55211e-07 -8.08484e-08
3.16511e-05 2.93351e-05 -3.22134e-05
3.34956e-07 1.8113e-07 7.41711e-08
3.39034e-07 1.46738e-07 1.31904e-07
3.43624e-07 1.72946e-07 1.11938e-07
3.18214e-05 2.12462e-05 2.94503e-05
-9.81919e-08 5.26729e-08 -1.9804e-08
-8.62741e-08 4.54033e-08 -4.99138e-08
-1.79969e-07 1.09494e-07 -1.18109e-08
-3.14326e-07 2.6617e-07 -7.04871e-08
3.54095e-05 2.45737e-05 3.37898e-05
6.95418e-06 3.8975e-06 -1.27037e-06
3.2522e-06 4.10006e-06 -1.84535e-06
3.6308e-06 4.26457e-06 -1.7818e-06
0.000174059 5.9421e-06 -2.20676e-05
0.00016238 6.72601e-06 -2.00441e-05