# vtk DataFile Version 2.0
S, Created by Mohamad Ibrahim Cheikh
ASCII
DATASET UNSTRUCTURED_GRID
POINTS 10490 double
-223.577 20.3397 -34.7911
-223.727 23.2871 -32.766
-130.488 -29.2921 69.2917
-194.382 -37.8828 -41.0234
-207.465 29.5133 40.0416
-235.873 27.4024 13.474
-191.272 -39.7113 -41.0838
14.3627 -3.08007 87.8024
-191.048 39.238 -41.6622
-193.387 36.9464 -42.4295
-251.146 3.21409 -3.38177
-251.006 5.46377 -0.715377
-204.324 29.3074 -42.1166
18.551 -1.42774 87.7487
-201.226 30.3664 -43.1792
-151.252 68.7559 -14.6896
-148.437 69.9685 -12.2814
241.381 21.7611 -11.7084
240.377 24.3451 -8.78196
38.921 73.0615 -47.1228
42.7716 72.3212 -47.8505
45.3559 -3.15846 -86.4995
49.2234 -1.48064 -86.2854
-145.562 -45.4896 -55.5032
-142.057 -46.9135 -55.4297
-191.797 -27.3605 49.9167
-189.472 -30.0393 49.4614
-64.3408 -67.8314 51.3427
-66.4852 -66.0126 53.34
-121.223 -41.6746 -64.8701
-205.479 44.6128 24.1766
-208.424 41.8775 25.9194
-64.8725 -22.5226 81.9847
-61.2484 -23.8921 81.9383
44.2674 4.25459 86.5216
-201.398 -44.9168 27.5782
-50.2279 82.9714 -23.4708
-46.9261 82.6967 -25.2124
-109.54 -78.4117 -11.2497
-105.514 -79.2425 -10.0788
-195.482 42.6479 35.3088
-200.946 -43.0024 30.8405
-54.4209 -15.2604 84.549
3.48148 8.36065 87.5935
226.254 36.0728 -13.2456
223.493 37.2797 -15.4578
-146.966 22.4426 -67.7934
-143.808 23.7214 -68.186
-167.023 -43.0211 -49.7774
-163.504 -43.4757 -50.8021
-215.265 -7.15478 -44.9388
-215.165 -3.15871 -45.4532
-105.611 -17.5629 77.9101
-104.073 -21.1011 77.2831
-247.961 -12.5205 7.72454
-247.223 -12.2226 10.5723
-226.222 -18.8439 33.5162
-129.02 -40.8329 -63.5505
238.446 4.07588 -27.6839
236.191 2.11824 -30.1597
30.6225 -3.66132 -87.2685
26.6555 -1.90655 -87.4836
-224.96 -22.5378 32.2521
-47.6615 -75.8705 41.3467
-235.553 -26.7703 15.3058
-109.954 51.3465 -60.2276
-237.92 -25.2882 13.1995
-16.8504 -1.35426 -87.7918
-20.0148 -3.92116 -87.6332
25.2855 7.69103 -87.2157
27.2882 3.83815 -87.3962
25.3978 1.81364 -87.5313
45.9406 -6.27174 -86.2918
-242.159 -16.9738 16.6273
249.587 -5.36867 -9.4094
249.11 -2.3024 -11.881
-169.132 48.1761 43.8277
30.4809 -13.4423 -86.3108
-165.502 47.9512 45.7295
-244.371 -14.4423 14.9737
243.986 6.92825 20.1946
244.544 3.56468 20.2423
-218.529 -34.2524 26.9091
-142.145 -69.4108 21.2702
-139.629 -70.7397 18.787
-221.095 -32.0559 27.049
-157.97 -59.7991 33.3601
-205.032 32.4701 39.2804
-154.318 -61.3629 32.6041
21.3163 7.48808 87.363
-119.014 18.5859 75.2623
-116.349 20.6828 75.2254
25.5773 -59.0275 64.6503
29.111 -57.654 65.6982
-134.424 55.1237 -49.9309
-136.687 52.6222 -51.8411
-177.081 57.927 23.4377
-176.663 59.4066 19.8454
-69.2476 65.7589 -53.2229
-62.7015 16.9807 -83.5124
-66.3237 16.9362 -83.1782
-65.7364 67.3607 -51.7444
124.435 57.7551 50.1261
121 58.3627 50.4508
-132.441 -69.8467 26.7944
-132.815 -68.0006 30.9883
-188.839 35.1335 46.3008
-185.092 37.3073 46.4523
-232.725 13.1762 -30.6506
-58.6459 75.7906 39.733
-59.9546 77.298 36.4545
-231.926 16.8005 -29.6013
-175.27 -46.9578 -42.1658
-178.778 -11.2204 60.869
-181.793 -8.37202 60.2308
-195.803 53.7623 12.6394
-198.353 52.0761 14.6686
-195.137 -6.40093 -55.146
-196.107 -2.36008 -55.0455
-155.746 25.1118 64.371
-159.431 22.5098 64.2288
-196.21 -54.5516 -7.39892
-193.182 -56.048 -5.79626
-90.4638 75.4195 -32.4648
-86.4469 75.8465 -32.8082
-39.2325 -78.9662 -36.3304
-42.7332 -77.6529 -38.6064
-35.6767 20.8175 -84.586
-119.246 -59.0737 -50.1335
-116.052 -58.3855 -51.829
-103.564 -58.9078 54.4127
-107.458 -57.2142 55.2884
-176.017 46.9261 -41.8189
26.8918 14.1605 -86.342
23.7317 15.877 -86.1567
-175.585 44.5903 -44.5103
-89.4386 -39.5763 72.0997
-93.3066 -38.4308 72.1192
-1.70875 -75.0105 -46.0116
2.63032 -75.2473 -45.6179
-158.019 -33.1907 -59.8773
-154.736 -36.6285 -58.9151
24.7372 73.3409 47.856
27.2697 71.3431 50.6273
-166.514 38.8418 53.2981
-168.934 36.4724 54.0349
126.63 60.2676 46.3533
124.962 62.2385 44.2554
55.8922 20.2822 83.3677
-158.126 12.6717 67.2473
-155.539 9.86376 68.4458
-42.8019 74.3576 -44.6168
70.7928 53.1557 -65.6117
-39.9434 75.9686 -42.1597
222.064 -27.8281 -30.5327
225.276 -26.0122 -29.2254
-14.5959 80.6335 -34.8733
-17.6504 79.4683 -37.2914
247.477 -7.06408 13.9945
245.671 -9.07237 16.5073
-182.883 19.8689 57.0474
-181.343 22.7133 56.5859
-54.566 69.4155 50.6059
-52.2535 71.2713 48.2712
-221.668 26.3891 -32.1215
245.288 -12.7014 14.7131
-123.33 -44.6551 -62.3515
-128.466 -46.8972 -59.3643
-126.777 -44.2459 -61.7944
-219.064 -11.05 41.7924
-206.355 49.8865 -6.47832
-208.039 48.5247 -9.51659
-173.56 -35.1356 53.1179
-196.131 -34.866 -42.6472
-56.7824 10.7353 85.053
-98.7113 80.796 4.80129
-149.826 -21.4611 67.3434
-153.217 -21.7044 66.3235
-104.942 79.9431 2.19097
-102.541 80.1795 5.28488
-208.258 -1.82301 -49.3019
-211.7 -0.421678 -47.5064
7.26815 77.4678 -41.6686
8.20601 75.618 -44.9185
-11.4434 86.3255 -16.6094
-15.6572 85.6739 -19.3381
11.9689 74.9762 -45.8807
-209.311 34.9134 -34.0773
-209.406 37.4938 -31.137
-243.667 12.295 -17.9923
-205.976 40.1063 -30.6797
-237.95 16.7347 23.0634
-240.122 13.5399 22.3945
-198.66 34.6903 41.3373
-44.08 -51.8521 -69.408
-47.926 -52.1682 -68.8569
-63.1423 78.905 -32.0917
-59.9198 79.8637 -30.4339
-198.887 37.69 38.4786
-195.367 39.992 38.3627
193.191 51.8488 -22.0509
191.205 51.6139 -24.5771
-16.6968 73.8164 -47.5501
-15.8885 71.9836 -50.3135
-160.696 -8.66669 67.1368
-158.237 -5.13538 68.2062
-159.174 -12.1808 67.0348
-155.579 -13.9401 67.7221
-181.215 -39.3658 -46.6249
-187.065 -34.8923 -47.3526
234.201 -8.19788 31.0077
231.367 -8.83937 33.3482
-185.722 -37.8038 -45.7377
-220.423 -36.3319 -21.8076
-223.2 -33.1946 -23.2995
-73.4617 69.9715 46.7684
-199.23 43.386 -31.6553
-202.394 40.5305 -32.9566
-78.3161 72.2132 42.1704
-74.3896 72.1395 43.1554
-199.862 -47.1002 -25.201
-196.405 -49.1625 -24.5824
-156.236 -38.5569 57.174
-155.21 -34.5989 59.9795
-162.872 56.286 -36.4437
-159.715 58.112 -35.2694
245.94 -16.0776 8.95249
246.756 -13.0532 10.9097
-202.183 25.1294 -45.9108
246.469 -16.6405 5.45949
-222.675 -40.729 -3.81049
-219.564 -42.6762 -4.53534
-225.905 36.4597 -12.9114
-224.077 36.2206 -16.8751
-228.9 -34.8683 10.6506
-231.376 -33.577 7.89243
-225.472 -37.7617 9.6943
119.524 74.831 19.8813
-172.162 -51.1027 -38.7774
115.328 75.6474 19.8261
47.9278 12.2011 -85.5213
51.5132 10.7938 -85.4553
-180.218 -22.1677 57.2383
-179.909 52.3345 -32.286
-165.441 0.852664 66.2743
-168.564 2.83211 65.2478
-181.016 -17.4092 58.5598
36.4513 -59.75 63.3346
37.7861 -57.2029 65.5517
-159.984 -59.9391 -31.9019
-182.765 -21.7965 -56.3857
-184.307 -18.0275 -57.0979
-11.9209 15.2793 -86.5629
-188.59 -54.9976 19.1024
-192.466 -53.1209 19.6708
-145.912 9.3538 -71.0628
-143.718 12.1647 -71.1845
-174.325 52.4479 35.6743
-173.399 50.7395 38.5793
-187.153 39.7421 -43.3161
-231.489 33.5035 -7.79805
-229.084 35.9768 -4.95763
-234.897 30.8767 -5.94608
241.404 7.72139 23.4447
239.892 10.8374 24.1019
240.609 13.4025 21.8297
-138.877 -61.8294 -39.4947
-138.123 -60.1613 -42.2955
-141.494 -58.2476 -43.5901
-200.351 -41.1628 -33.6927
-218.713 20.1206 -38.5055
-52.6019 9.18581 85.562
-56.679 -81.1825 27.5697
-60.1936 -81.4603 25.7803
-152.58 56.1757 41.6899
-153.301 58.0828 38.641
-189.41 -9.8919 -57.0424
-186.061 -8.8761 -58.5392
64.9159 -8.69481 84.5723
67.8932 -7.0501 84.4391
-196.834 -37.2177 40.1923
-200.414 -34.608 40.3579
-180.668 -48.245 -37.6856
-174.531 -52.0915 -36.0708
-215.618 -38.5088 23.8566
-218.655 -36.4146 23.7613
-178.254 -50.9813 -35.4225
-121.383 48.039 -60.2693
-70.6532 60.0746 59.3623
26.871 -68.2952 54.6934
24.8055 -66.5833 56.88
-87.1742 -8.55068 -82.1005
-83.9967 -6.23635 -82.7122
-27.9511 86.1827 -14.8621
-31.9948 85.7512 -16.2911
-74.5076 60.5223 58.3215
-117.448 49.1066 -60.3634
67.0701 -10.9497 -84.1033
63.32 -11.5584 -84.3773
-122.207 44.8316 -62.4954
-75.5574 64.5398 -53.6625
-79.1333 64.6339 -52.9131
-210.937 -46.4388 -11.8315
-207.911 -47.277 -14.7164
-70.3871 -66.9038 51.588
-81.9187 62.1348 -55.3324
180.999 57.5743 -20.4519
187.789 54.7446 -20.7262
-57.9982 -57.7616 -63.212
-60.2556 -59.9453 -60.8774
185.025 56.5079 -18.962
-52.1873 5.06177 85.9357
170.803 -60.9398 -21.4147
166.658 -61.8362 -22.7994
-242.161 -11.2299 20.9365
-241.443 -7.71385 23.3975
231.622 25.8613 -22.5151
229.371 25.181 -25.8601
225.984 27.6882 -26.9256
-235.385 -18.9681 -24.5117
-234.849 -16.6286 -26.7391
-226.06 27.1711 -27.3706
-222.944 28.4656 -29.128
-220.763 31.3811 -28.1502
-250.634 -7.29247 -0.178803
-176.023 45.3185 43.5526
58.5673 51.355 -68.4595
59.679 48.5285 -70.3771
128.081 68.382 32.5494
131.577 68.3033 30.969
-176.896 47.6337 40.5453
-181.001 46.761 39.3244
18.7046 -86.4177 15.2692
142.021 69.3638 -21.5232
141.073 68.3979 -25.0829
23.2384 -86.1703 15.8922
181.098 -44.0243 42.3153
25.6365 -86.6619 12.3796
-189.022 21.6564 -53.8578
-189.443 17.91 -55.0397
-212.327 -45.014 14.0799
-120.84 -46.9974 -61.2166
-24.3219 -37.2665 79.264
52.2801 18.5873 -84.0469
55.7957 16.7978 -84.1468
-25.2944 -41.1162 77.299
-119.139 -6.50906 -77.2259
-115.758 -7.72343 -77.7418
-200.041 16.4878 50.7238
-215.149 -43.2636 14.3209
-153.389 33.1082 61.3782
-156.808 31.4068 61.2143
-157.699 28.2621 62.4543
-79.9684 -83.4308 0.602713
-62.2865 73.5047 -43.1981
-61.769 71.441 -46.6161
-79.8043 -83.3553 -4.02137
-209.642 -18.6797 44.8809
-58.8958 72.0896 46.0696
-205.671 -19.6709 46.6711
-191.283 -46.3878 33.355
-190.153 -45.0071 35.9377
-195.123 47.3338 29.0213
-192.216 -42.6375 37.4515
-97.6151 19.9654 78.6052
-94.0011 21.099 78.848
-195.846 -41.8707 35.9855
-247.68 -8.81025 12.4838
188.064 -42.0214 40.5964
184.929 -44.2656 39.9696
-126.997 75.5449 7.89693
-123.319 76.0946 9.57872
48.8055 1.74402 86.3095
130.442 15.6029 -73.6029
-179.647 46.5478 -40.3248
198.594 13.1824 52.3606
200.49 9.43613 52.2852
113.303 74.9008 23.7099
109.555 75.3623 24.3943
149.537 63.749 -30.6978
145.703 65.3579 -29.5501
-166.877 -45.6674 -47.4243
129.832 19.3664 -72.8368
-209.791 43.7116 -21.0918
-206.93 46.1353 -19.3142
126.457 20.219 -73.3305
-61.8739 -0.200312 85.2951
-59.1368 2.70434 85.4899
-53.816 -1.89031 85.941
[...]
POINT_DATA 10490
VECTORS F double
1.37974e-08 3.05333e-08 6.99331e-09
1.21797e-07 8.65702e-08 -4.02914e-08
1.46266e-07 7.08994e-07 3.33441e-07
5.62226e-08 -7.50155e-09 -2.56893e-08
2.80946e-07 2.47195e-07 -3.98224e-09
1.7571e-07 1.8758e-07 -4.89433e-09
8.1782e-08 2.46739e-08 -7.04647e-08
-1.8636e-06 2.39496e-06 1.21337e-07
9.03325e-07 6.78136e-07 1.31529e-07
9.72092e-07 5.94159e-07 -2.50681e-08
1.17595e-08 7.11794e-08 -3.92832e-08
1.02816e-08 5.54262e-08 -1.83956e-08
1.0297e-07 3.37689e-07 1.73825e-07
-2.2719e-06 3.85194e-06 1.21478e-07
1.40974e-07 1.24194e-07 6.90682e-09
3.30884e-06 7.13416e-07 -8.31955e-07
4.22216e-06 8.08424e-07 -1.64203e-06
-1.23163e-08 2.32218e-08 1.20771e-08
-1.44269e-08 2.25233e-08 1.40947e-08
-2.84457e-05 8.21455e-06 9.85977e-06
-2.83367e-05 5.56037e-06 5.30288e-06
-3.2581e-06 1.98458e-06 -2.81622e-07
-2.97039e-06 1.50339e-06 -2.33258e-07
3.06284e-08 2.107e-07 -1.82521e-07
5.68449e-08 2.37868e-07 -2.19159e-07
1.68583e-08 1.65103e-07 9.84276e-08
2.10178e-09 1.41131e-07 8.66993e-08
-4.52125e-08 1.92611e-07 2.47531e-07
-1.88963e-07 1.49597e-07 1.56302e-07
2.46376e-07 2.04638e-07 -1.87834e-07
5.40941e-07 2.46027e-07 1.08886e-07
3.64553e-07 2.68646e-07 -7.51434e-08
1.62523e-07 2.8859e-06 8.08552e-07
-2.0643e-07 1.66812e-06 4.67509e-07
-1.98802e-06 2.97569e-06 -2.17973e-08
1.51785e-08 2.83244e-08 5.9702e-08
7.5497e-05 1.22426e-05 2.3498e-05
8.12341e-05 1.41487e-05 2.78965e-05
3.98456e-08 2.92033e-10 -4.9541e-08
3.45416e-08 -2.82724e-09 -2.20399e-08
6.21603e-07 3.38595e-07 1.23629e-08
2.77524e-08 2.88782e-08 6.2405e-08
2.36659e-07 2.77107e-06 5.18806e-07
-1.60729e-06 3.74695e-06 -3.49818e-07
-2.44242e-08 1.45783e-08 -1.13768e-08
-4.11822e-08 3.70765e-08 1.65192e-08
1.2392e-06 8.45488e-07 -4.90026e-08
1.12138e-06 1.45138e-06 2.15368e-07
-4.94592e-08 9.99865e-08 -6.60973e-08
-4.29141e-08 1.12344e-07 -7.92324e-08
5.16181e-08 1.4053e-07 -5.26461e-08
6.72813e-08 1.49234e-07 -4.93639e-08
9.3788e-07 2.23254e-06 6.58923e-07
1.04499e-06 2.17166e-06 7.65231e-07
-3.89152e-08 9.53254e-08 1.57708e-09
-2.72863e-08 7.20351e-08 5.16337e-09
5.91157e-08 9.5337e-08 1.02453e-07
1.75949e-07 3.51246e-08 -6.63025e-08
-2.02263e-08 1.33958e-08 -1.93554e-08
-1.92031e-08 8.26795e-09 -1.78306e-08
-2.50742e-06 3.12863e-06 -2.3898e-07
-2.31065e-06 4.00606e-06 -1.73498e-07
1.41355e-08 8.53351e-08 7.17047e-08
-3.86686e-08 5.68612e-08 9.88827e-08
-1.05061e-08 1.21873e-08 1.5197e-09
1.01678e-05 5.63234e-06 2.52915e-06
-2.02142e-08 3.62108e-08 2.47689e-08
-1.87201e-07 4.78319e-06 -6.93838e-08
3.08948e-07 3.8596e-06 -1.81336e-07
-9.51656e-07 6.64824e-06 5.52492e-07
-3.19849e-06 5.3391e-06 1.12208e-07
-2.20669e-06 4.20425e-06 8.72234e-09
-1.36671e-06 2.27692e-06 -2.54569e-07
5.83416e-09 4.40133e-08 5.53354e-08
2.75264e-09 1.39124e-08 1.0048e-09
-3.71046e-09 4.97761e-09 -1.04902e-08
4.10017e-07 3.69143e-07 -2.12047e-07
1.00132e-06 1.73051e-06 -2.26219e-07
5.563e-07 5.4069e-07 -3.20461e-07
1.38271e-09 2.82363e-08 2.99975e-08
-1.04549e-08 1.15261e-08 1.15092e-08
-3.05107e-09 1.1841e-08 2.4249e-09
2.028e-08 1.52457e-08 3.95687e-08
2.73545e-08 6.37568e-09 4.31847e-08
1.4233e-08 3.58394e-09 2.64463e-08
1.68189e-08 1.7724e-08 3.78371e-08
3.99424e-08 3.40392e-08 8.41726e-08
2.39548e-07 2.8329e-07 -8.109e-08
4.14396e-08 2.91305e-08 7.88383e-08
-6.99032e-07 4.60173e-06 -3.73543e-07
2.12368e-06 2.60496e-06 -2.32137e-07
1.98984e-06 3.02216e-06 -4.54125e-07
-2.4161e-08 2.029e-07 1.86423e-07
-6.81254e-08 2.97526e-07 2.64792e-07
4.46598e-06 2.60648e-06 1.40553e-06
5.08465e-06 2.2808e-06 6.73802e-07
4.55384e-07 3.276e-07 -3.88431e-07
1.22612e-06 5.44741e-07 -2.94348e-07
2.23996e-05 1.6373e-05 1.66613e-05
1.83012e-06 2.28974e-06 2.97351e-07
1.5992e-06 1.06388e-06 6.05045e-08
2.18503e-05 1.80891e-05 2.01498e-05
-1.07742e-06 3.56216e-07 -8.29748e-08
-1.13844e-06 4.33083e-07 -1.66712e-07
4.29553e-09 1.34072e-08 3.75479e-08
4.07851e-10 1.85629e-08 4.09477e-08
9.77536e-07 5.23885e-07 9.05911e-08
9.78298e-07 6.25335e-07 -2.49785e-08
5.84278e-08 8.2294e-08 -1.89369e-08
4.07833e-05 1.80366e-05 -2.70348e-05
4.07506e-05 1.77991e-05 -2.95358e-05
3.39142e-08 8.48039e-08 1.55978e-08
4.34297e-08 -2.23915e-08 2.83539e-09
4.41766e-07 3.77753e-07 2.28489e-07
2.23097e-07 1.42374e-07 1.02231e-07
6.38484e-07 3.4714e-07 -2.65604e-07
7.6565e-07 3.6583e-07 -3.11889e-08
-5.25607e-09 1.13515e-07 -1.08994e-08
1.19864e-07 1.56511e-07 -5.89917e-08
4.04786e-07 2.21678e-06 -7.44884e-07
1.17901e-06 9.3886e-07 2.92701e-08
8.20392e-09 -2.11186e-09 -1.10652e-08
-1.04166e-09 -8.08952e-10 1.20699e-08
2.41823e-05 6.62875e-06 7.14938e-06
2.53249e-05 8.17125e-06 1.07207e-05
-4.29569e-08 5.07732e-08 -1.0468e-07
-2.85467e-08 6.57714e-08 -1.28423e-07
9.00993e-07 8.98435e-06 2.16462e-06
1.26876e-07 1.53303e-07 -2.17589e-07
1.24383e-07 1.77758e-07 -2.34342e-07
4.30518e-08 1.51357e-07 1.73893e-07
8.93211e-08 2.41466e-07 2.71131e-07
2.19507e-06 6.91182e-07 -3.55556e-07
-6.50955e-07 6.23927e-06 9.98448e-07
-2.19026e-06 3.94755e-06 6.53595e-07
7.54831e-07 1.46209e-07 -2.18088e-07
2.61537e-07 5.84109e-07 3.60345e-07
3.14005e-07 8.75532e-07 5.16292e-07
-6.34601e-08 8.50115e-08 -1.38302e-07
-6.20566e-08 6.20972e-08 -1.02868e-07
1.22388e-07 2.29065e-07 -1.66517e-07
2.77609e-08 1.44642e-07 -9.88525e-08
-2.08245e-05 1.70145e-05 -2.47575e-05
-2.65575e-05 1.44017e-05 -1.85433e-05
2.50883e-06 1.12042e-06 1.43099e-07
2.19982e-06 1.27296e-06 -1.7204e-08
-6.0594e-07 1.58632e-07 -3.58381e-09
-1.40387e-06 3.8315e-08 4.3144e-07
-1.25952e-06 1.22892e-06 -1.95596e-07
9.36309e-07 9.84816e-07 8.39769e-08
2.76407e-07 2.74438e-07 3.73525e-08
4.5361e-05 2.6139e-05 3.82351e-05
-6.31953e-06 3.4219e-06 1.93747e-06
5.44313e-05 2.28965e-05 3.49438e-05
-2.69012e-09 8.52743e-09 -1.01678e-08
-1.76926e-09 6.68248e-09 -7.61702e-09
0.000117878 2.70622e-05 5.65321e-05
0.00010484 3.08307e-05 5.96251e-05
-7.25348e-10 -4.1413e-10 1.35904e-09
-1.28891e-09 8.24488e-10 2.80096e-09
3.78274e-07 5.39183e-07 -3.9321e-08
3.372e-07 5.87497e-07 -1.03514e-07
3.51859e-05 2.59745e-05 -3.09839e-05
3.89883e-05 2.4866e-05 -3.15469e-05
1.90112e-07 7.56517e-08 -9.84728e-08
-4.23909e-09 -1.69884e-09 7.18472e-09
2.37693e-07 1.86955e-07 -1.91455e-07
1.46115e-08 1.24856e-07 -1.02506e-07
2.20962e-07 3.57282e-08 -8.10826e-08
2.01359e-09 1.31365e-07 3.60249e-08
5.20346e-07 2.7792e-07 1.10881e-07
5.63749e-07 3.03528e-07 3.88458e-08
9.81565e-08 1.37688e-07 1.30342e-07
8.8188e-08 3.72786e-09 -5.27013e-08
2.32435e-06 3.62298e-06 -2.673e-07
2.57961e-05 3.98792e-06 -2.17702e-06
-3.16363e-08 2.73104e-07 7.84162e-08
-6.37436e-08 3.67747e-07 1.02317e-07
2.25406e-05 3.72822e-06 -3.85202e-06
2.43801e-05 4.08654e-06 -4.08385e-06
4.64538e-08 9.10781e-08 -2.73918e-08
6.44075e-08 1.80307e-07 -3.67397e-08
6.1391e-05 3.82361e-05 7.23974e-05
1.51539e-05 3.396e-05 5.75091e-05
0.000181089 6.9803e-06 2.1003e-05
0.000165169 8.17644e-06 1.98508e-05
1.63147e-05 3.20761e-05 5.29385e-05
2.90501e-07 2.14937e-07 1.75348e-09
8.14986e-07 4.43278e-07 -1.37273e-07
1.00835e-07 1.73367e-07 -4.87212e-08
7.37352e-07 5.585e-07 1.24023e-07
6.77919e-08 1.98656e-07 -5.85123e-08
8.00483e-08 1.6736e-07 3.89797e-09
4.08334e-07 -1.58725e-07 3.73459e-07
4.34122e-07 3.21218e-07 -2.73723e-07
3.99753e-07 4.04231e-07 -3.40323e-07
5.05365e-05 1.52807e-05 2.53974e-05
5.44161e-05 1.42626e-05 2.43106e-05
6.7088e-07 -2.4191e-08 4.48239e-07
5.02214e-07 2.83538e-07 1.75486e-08
-8.21679e-08 3.86602e-08 2.76593e-09
-1.14703e-07 6.20477e-08 2.10521e-08
4.78918e-05 4.24137e-05 6.37839e-05
2.32933e-05 3.89861e-05 5.4877e-05
7.31567e-07 4.10628e-07 2.67391e-07
8.9359e-07 3.41648e-07 2.79537e-07
2.04383e-07 1.56561e-07 8.7866e-08
3.17423e-07 3.63253e-07 1.64052e-07
9.87809e-08 9.51219e-08 -1.27316e-07
1.11611e-07 7.39294e-08 -1.08458e-07
1.5872e-09 1.08865e-08 1.41097e-09
1.14966e-09 1.06896e-08 1.8559e-09
8.53291e-08 6.07486e-08 -9.26316e-08
3.48729e-09 2.29896e-09 -8.14585e-09
-1.07861e-09 4.35313e-09 -4.93786e-09
2.68544e-05 1.27053e-05 -1.38443e-05
7.51059e-07 5.89457e-07 2.29166e-07
7.74921e-07 5.57586e-07 1.03084e-07
2.34232e-05 9.17111e-06 -1.0379e-05
2.62821e-05 1.26148e-05 -1.55405e-05
4.00604e-09 1.3196e-08 -2.85537e-08
4.76062e-10 7.03616e-09 -1.45376e-08
7.07324e-08 2.6408e-07 2.01755e-07
2.03658e-07 2.4513e-07 2.05924e-07
1.53832e-06 1.04885e-06 7.78204e-07
1.9098e-06 9.41494e-07 4.92426e-07
2.08757e-09 7.47365e-09 6.39595e-09
7.14806e-10 8.00474e-09 7.59731e-09
3.15668e-07 2.25711e-07 -4.66532e-08
6.80559e-10 3.24653e-09 6.13739e-09
-2.753e-08 1.93186e-08 -9.53193e-09
-2.08857e-08 9.57918e-09 3.36539e-08
2.96705e-07 2.27089e-07 5.68413e-09
3.82251e-07 2.97599e-07 1.73356e-08
1.26747e-08 -1.81164e-09 2.74173e-08
-1.85823e-09 1.1288e-08 4.13524e-08
2.14442e-09 -5.47295e-09 -1.52122e-08
-1.97706e-06 2.07125e-07 6.75607e-07
5.06375e-08 -1.98749e-08 -1.33287e-09
-2.05232e-06 2.60103e-07 4.69181e-07
5.63609e-07 1.57193e-06 2.62936e-07
4.86388e-07 1.07237e-06 1.71347e-07
1.13221e-07 3.11852e-07 1.64421e-07
1.45646e-06 5.04789e-07 -1.75388e-07
4.6602e-07 2.10139e-07 1.39723e-07
4.77275e-07 2.91429e-07 1.38309e-07
1.57307e-07 3.37853e-07 1.59973e-07
-3.87465e-08 1.98048e-07 1.8957e-07
-1.84643e-08 2.09775e-07 1.84361e-07
4.1757e-08 1.0834e-08 -4.59929e-08
6.81425e-08 6.23811e-08 -5.11566e-08
2.15571e-07 1.18489e-07 -1.22603e-07
5.04792e-07 8.59321e-06 1.50829e-06
7.53317e-09 9.60043e-09 3.67448e-08
2.51959e-09 8.30369e-09 2.54433e-08
1.02725e-06 7.26335e-07 -1.6263e-07
8.15646e-07 9.97422e-07 -3.11639e-08
1.62998e-06 1.01642e-06 -5.19164e-07
1.22292e-06 8.12828e-07 -3.9608e-07
1.01423e-06 9.65593e-07 3.49417e-07
3.40295e-07 2.87441e-07 -1.82039e-09
3.14913e-07 2.55592e-07 7.32165e-08
2.68703e-07 2.12309e-07 -1.97136e-07
-1.23848e-08 2.08598e-08 8.74271e-09
-8.44848e-09 2.60731e-08 -1.42765e-09
-8.89858e-09 2.55878e-08 -3.70211e-09
7.23701e-08 2.78174e-08 -7.47047e-08
1.45383e-08 5.3608e-08 -8.20651e-08
7.2853e-08 1.09251e-07 -1.7494e-07
-1.03128e-08 6.3191e-08 -6.96938e-08
1.25918e-07 1.94666e-07 1.41564e-08
3.28936e-06 5.44217e-06 -3.36676e-07
2.64098e-08 2.01091e-08 6.58612e-08
1.94662e-08 1.95377e-08 6.72977e-08
1.2055e-06 2.91199e-07 1.4779e-07
3.07708e-06 1.03189e-06 -5.64744e-08
1.36255e-07 2.39017e-07 -9.68404e-08
1.82588e-07 1.41254e-07 -9.24689e-08
9.87159e-08 5.92759e-07 5.16643e-08
-6.01281e-08 9.86422e-07 8.82785e-08
2.15775e-08 7.1818e-08 7.94404e-08
1.61904e-08 7.29439e-08 7.23947e-08
2.11528e-08 2.21451e-08 -4.07645e-08
1.87228e-08 3.4288e-09 -1.60439e-08
1.61165e-08 3.16675e-09 2.29455e-08
1.81799e-08 1.18799e-08 3.86873e-08
1.51591e-08 1.661e-08 -3.32459e-08
6.45982e-06 3.65148e-06 1.31765e-06
2.33813e-05 1.6874e-05 -1.36694e-05
-4.12249e-09 2.26253e-07 2.82767e-07
-1.18842e-07 1.83235e-07 2.20838e-07
7.95009e-07 1.57582e-06 -2.67469e-07
6.77216e-07 1.89936e-06 -2.27408e-07
0.000133132 8.98329e-06 2.14374e-05
0.000120952 1.03265e-05 2.52723e-05
2.16485e-05 1.47321e-05 -1.1902e-05
6.54241e-06 4.62185e-06 2.20147e-06
-9.13107e-07 7.44952e-07 -1.86139e-07
-9.5123e-07 6.66984e-07 -1.78762e-07
4.33475e-06 3.61643e-06 1.55649e-06
2.06764e-05 1.48225e-05 1.42627e-05
1.88173e-05 1.20884e-05 1.13207e-05
1.44623e-09 -6.26522e-09 2.14331e-08
-2.04922e-08 1.4895e-08 -1.24067e-08
-1.36417e-07 6.67724e-08 6.38085e-08
1.77098e-05 1.20545e-05 1.03264e-05
-2.13727e-07 6.29994e-08 -5.42283e-08
-1.68367e-07 7.93736e-08 2.28829e-08
-4.47055e-07 2.81844e-07 -2.07324e-07
-2.73752e-07 1.61263e-07 -1.2562e-07
-2.09631e-07 7.9825e-08 -1.25528e-08
1.29532e-06 4.98112e-06 -1.97087e-07
1.00799e-08 5.84318e-09 -6.78444e-09
1.04692e-08 7.78371e-09 -1.17411e-08
-1.28594e-08 3.14258e-08 -1.35362e-09
7.91402e-09 2.194e-08 1.72332e-08
-5.86138e-09 1.50135e-08 9.86388e-09
-1.6432e-08 3.02433e-08 1.16059e-08
-2.02377e-08 2.62871e-08 6.23692e-09
-3.08333e-08 5.36207e-08 -5.24368e-09
4.2958e-08 2.67366e-09 -4.78561e-08
2.60805e-07 3.05762e-07 3.98116e-08
2.64416e-07 1.50684e-07 -1.00521e-07
1.95847e-07 1.83971e-07 1.70457e-08
-2.21428e-08 9.34782e-08 -1.27074e-08
9.43469e-07 4.28157e-07 2.13306e-08
-4.37863e-06 4.11635e-06 2.62928e-06
-3.15208e-06 4.206e-06 2.57301e-06
-1.0589e-06 5.11697e-08 4.0264e-07
-9.24397e-07 -5.04772e-08 5.92172e-07
1.43807e-06 6.70062e-07 -1.90538e-08
1.31726e-06 2.58041e-07 4.35466e-07
-1.49502e-08 1.0062e-08 5.91916e-08
-5.39838e-07 -2.25846e-08 -5.08899e-07
-9.26386e-07 6.32944e-08 -4.653e-07
-4.35188e-09 7.6664e-10 4.933e-09
-1.18504e-08 6.93169e-09 1.34198e-08
-1.10298e-08 -7.06989e-10 -2.15459e-09
1.59064e-07 4.76501e-07 1.23255e-07
1.3077e-07 4.63608e-07 9.57522e-08
-2.63885e-08 2.19107e-08 2.13281e-08
3.37635e-07 2.35257e-07 -2.6221e-07
-3.54105e-08 2.75146e-07 1.28032e-07
-1.43981e-06 2.21171e-06 3.7948e-07
-1.38027e-06 2.07418e-06 3.02008e-07
-1.38045e-07 2.53268e-07 1.29186e-07
-6.29068e-08 1.00693e-06 -7.2988e-08
-3.9954e-10 1.07445e-06 -1.0667e-07
3.12383e-07 5.65904e-07 -3.31175e-08
-2.53934e-08 2.64787e-08 3.32852e-08
1.55511e-06 2.35586e-06 -7.94973e-07
1.70748e-06 1.77688e-06 -3.76149e-07
-1.88204e-08 1.96526e-06 -8.95144e-07
-3.24636e-08 3.74386e-09 -9.05777e-09
3.22861e-05 1.94302e-05 2.73624e-05
2.63004e-05 1.89537e-05 2.47806e-05
8.61107e-09 -4.48324e-10 -1.16426e-08
5.00648e-09 7.6435e-08 3.46765e-08
3.673e-05 2.05964e-05 -2.64802e-05
1.69519e-08 1.32261e-07 6.48912e-08
2.52958e-08 2.77276e-08 5.63215e-08
4.15e-08 2.36058e-08 5.64469e-08
3.57541e-07 3.55852e-07 -2.86082e-07
2.73289e-08 2.39236e-08 4.44092e-08
2.78737e-06 5.28698e-06 -9.19081e-07
3.37538e-06 4.31903e-06 -6.63063e-07
1.41183e-08 6.61201e-08 8.63403e-08
-1.20863e-08 7.08613e-08 2.06556e-08
-2.67352e-08 1.44137e-08 3.00833e-08
-1.39224e-08 4.2811e-10 8.36042e-09
6.80186e-06 1.44601e-06 -4.40691e-07
8.5184e-06 2.10566e-06 -3.30089e-06
-2.37161e-06 2.07355e-06 1.22289e-07
-1.86079e-07 4.18167e-07 4.82721e-08
2.18206e-06 8.73064e-07 -1.82361e-07
-6.2015e-08 8.3777e-08 7.70548e-09
-2.56016e-08 9.79546e-08 -5.6591e-09
-1.94924e-06 1.62499e-07 6.27083e-07
-2.18108e-06 4.87562e-07 -3.07004e-07
-9.82844e-07 2.29119e-07 -1.10358e-07
-1.15214e-06 1.3337e-07 -4.00531e-07
-7.14096e-08 9.57094e-08 -6.13998e-08
-4.79985e-07 4.05683e-07 3.11717e-09
4.72502e-07 1.59722e-07 -2.44383e-07
4.73154e-07 1.7725e-07 -1.97252e-07
-5.03363e-07 4.18626e-07 9.15114e-09
6.6119e-07 4.58865e-06 6.95012e-08
1.59313e-06 3.99221e-06 8.63807e-09
1.0822e-06 3.67607e-06 1.63827e-07
1.35614e-08 1.52862e-08 5.53432e-08
6.85451e-06 1.47417e-06 1.44612e-07
7.60136e-06 1.62467e-06 -1.05564e-06
-1.29356e-06 6.26316e-06 -1.09644e-06
1.30425e-08 -2.16466e-09 1.54463e-08
1.8209e-06 4.16313e-06 5.12535e-08
3.91576e-06 6.98375e-06 3.5817e-06
4.54121e-06 5.62351e-06 2.45988e-06
7.8927e-06 6.79804e-06 3.20704e-06
1.1369e-07 4.08778e-07 7.12188e-08
8.5673e-08 5.20337e-07 5.31085e-08
-3.27621e-07 1.49771e-06 1.72758e-07
-9.74031e-08 8.58187e-07 1.04898e-07
6.46811e-07 2.82938e-07 1.36815e-07
3.54201e-07 5.11765e-07 1.07141e-07
1.83213e-06 6.21005e-07 -2.42606e-08
2.3461e-06 9.53575e-07 3.0441e-07
-3.90445e-08 8.77502e-10 2.98831e-08
-3.33117e-08 -2.75642e-09 1.50769e-08
7.45798e-08 1.76818e-08 -7.90001e-08
5.89763e-08 7.7982e-09 -4.79622e-08
-2.21583e-08 7.28882e-08 1.09734e-07
1.57748e-08 5.95342e-08 1.16699e-07
-1.50165e-08 6.14726e-08 1.02468e-07
2.59174e-07 9.93769e-08 1.95919e-07
3.83714e-07 2.32367e-07 -5.59341e-08
5.36339e-07 2.52717e-07 1.3411e-07
2.31083e-08 7.25458e-08 -7.93531e-08
1.24549e-08 7.39456e-08 -7.56227e-08
-2.9302e-08 5.61187e-07 -3.26672e-07
4.21109e-08 3.31482e-07 -1.98477e-07
-6.77015e-07 3.14086e-06 -5.57103e-07
-1.21246e-06 2.43579e-06 -4.42962e-07
-1.37946e-08 6.09911e-08 -5.41146e-08
2.02671e-07 2.42936e-09 -4.17081e-08
-2.16608e-08 5.65176e-09 1.25649e-08
1.31295e-08 3.19724e-08 -4.96282e-08
-1.26406e-06 3.80126e-06 -1.65388e-07
-7.35145e-08 3.77047e-07 -2.80069e-07
-1.36096e-07 3.28685e-07 -2.31933e-07
1.93655e-05 2.4391e-05 2.40966e-05
1.57523e-06 7.99687e-07 1.1226e-06
7.14592e-05 6.1508e-06 6.51937e-06
7.95457e-05 6.33084e-06 -2.95542e-06
6.64503e-05 6.46499e-06 -9.81838e-06
7.70565e-05 6.12446e-06 -4.61725e-07
1.79222e-06 7.87751e-07 1.00912e-06
1.86065e-05 2.08641e-05 1.98986e-05
1.6862e-05 2.10104e-05 1.85219e-05
4.43541e-08 2.8034e-08 -7.86363e-08
-2.49152e-08 5.59408e-09 -2.78109e-08
-1.20275e-08 4.61495e-09 -5.09438e-08
4.98304e-08 1.74717e-08 -6.51113e-08
2.2537e-08 7.93143e-09 -3.17258e-08
1.34467e-07 2.34724e-07 8.25763e-08
1.0164e-07 3.43827e-07 2.03163e-07
-6.60437e-07 9.00022e-08 2.36066e-07
-1.67749e-05 7.7198e-06 -7.77871e-06
-1.79633e-05 7.63274e-06 -8.09864e-06
-8.24228e-07 8.34103e-07 -2.31198e-07
2.05817e-07 1.98037e-07 -1.60632e-07
3.53707e-07 3.70031e-07 1.07286e-07
1.83853e-07 4.97039e-07 -2.64277e-07
1.73431e-07 2.11156e-07 -1.4202e-07
1.25745e-07 4.54293e-09 7.48804e-08
1.03078e-07 5.44251e-08 1.31533e-07
6.5102e-08 3.27108e-08 8.50731e-08
1.12646e-06 1.50723e-06 -1.0294e-07
1.25114e-06 1.70056e-06 -1.05853e-07
-2.54546e-05 1.77872e-05 -2.84956e-05
-1.08456e-07 2.29075e-07 4.8093e-09
3.47287e-08 6.71677e-09 2.27028e-08
-2.86566e-08 6.88537e-08 1.25207e-07
5.9884e-07 1.7969e-06 -1.91091e-07
6.33374e-07 1.34355e-06 -1.64319e-07
-6.15084e-08 1.02979e-07 -2.13213e-09
1.12423e-07 1.79324e-07 4.59121e-09
-1.21494e-07 1.83339e-07 -1.35447e-08
-1.74134e-05 1.60897e-06 -3.71627e-08
3.58083e-09 1.21162e-07 -5.84088e-08
-3.59038e-09 1.03225e-07 -5.11585e-08
-1.17146e-05 4.47615e-07 -1.23706e-06
7.55316e-07 6.85307e-07 -2.3182e-07
-1.49679e-05 2.95015e-06 2.17702e-06
-1.08666e-08 9.91069e-08 2.57013e-09
1.49692e-06 5.71501e-07 9.57228e-08
1.67114e-06 4.48681e-07 4.2057e-07
2.31211e-09 6.50196e-08 -3.32642e-08
-8.76099e-09 7.72691e-08 2.37489e-08
1.10057e-07 1.95895e-07 -1.16083e-07
1.75627e-08 -1.05684e-08 -1.68368e-08
1.73358e-08 9.85883e-11 -3.5383e-08
4.2955e-07 4.39662e-07 -1.12291e-07
5.30264e-07 3.70937e-07 6.6753e-08
2.47866e-06 1.90974e-06 7.37392e-07
2.92899e-05 2.12875e-05 2.71869e-05
2.291e-05 2.11111e-05 2.51952e-05
1.8449e-08 8.61873e-10 1.94619e-09
-1.55125e-08 3.00543e-10 -1.69844e-08
2.36742e-05 2.11024e-05 2.34712e-05
3.46198e-07 9.34571e-08 1.4853e-07
1.79929e-07 1.38118e-07 1.66336e-08
-2.08715e-08 5.42176e-08 -9.99349e-10
-1.04611e-07 2.06205e-07 1.85187e-07
-9.16724e-08 2.26679e-07 1.86141e-07
-3.54418e-07 3.33498e-06 2.86864e-07
-1.02336e-07 4.46534e-08 4.12297e-08
-2.39238e-08 1.21619e-07 9.60665e-08
-1.04678e-06 2.78983e-05 -4.81048e-05
1.81764e-06 2.75484e-05 -4.31124e-05
-5.02138e-07 3.32161e-06 2.99453e-07
1.04026e-06 1.14535e-06 -2.1869e-07
-1.55464e-07 2.86803e-06 3.82541e-07
-2.53948e-09 -3.73422e-09 -2.15027e-08
4.27586e-07 7.84401e-07 -1.74672e-07
8.6668e-06 2.95234e-05 -2.91221e-05
4.46581e-07 6.2248e-07 -8.35025e-08
8.65891e-07 5.74822e-07 5.66533e-07
5.71684e-08 1.00922e-07 -5.05501e-08
-3.16774e-08 4.58872e-08 2.99581e-08
9.69144e-09 2.45635e-09 -4.51209e-09
-4.28529e-09 3.63868e-09 -2.30318e-08
-2.02684e-05 1.73818e-05 -1.71152e-05
-2.93127e-08 6.06434e-08 9.51736e-08
1.188e-06 4.56309e-07 -1.33384e-07
-5.76249e-09 -2.84616e-09 1.94171e-09
6.87396e-08 1.31741e-07 1.44398e-07
2.2417e-08 7.15872e-10 2.26167e-08
1.19948e-05 2.13447e-05 -1.59328e-05
2.53151e-07 9.07054e-08 -1.03866e-07
1.24249e-05 2.17707e-05 -1.80924e-05
0.000260396 -7.42538e-07 -2.58239e-05
0.000240845 1.79161e-06 -3.29155e-05
1.61762e-08 9.75199e-08 9.38119e-08
0.000160304 1.90707e-05 -5.64958e-05
1.43146e-08 1.09899e-07 9.01608e-08
-5.71363e-08 7.2953e-08 1.33274e-08
-6.62914e-08 5.32351e-08 -6.67439e-09
4.33142e-08 1.51188e-07 1.27937e-07
9.78745e-07 1.01333e-06 -3.20866e-07
1.45761e-08 -6.75515e-12 -9.01244e-09
3.32313e-07 2.54168e-07 -8.03419e-08
3.14572e-05 2.90081e-05 -3.1873e-05
3.33713e-07 1.80467e-07 7.38788e-08
3.37723e-07 1.46306e-07 1.31228e-07
3.42176e-07 1.72304e-07 1.11338e-07
3.18662e-05 2.09555e-05 2.9008e-05
-9.70148e-08 5.2001e-08 -1.98486e-08
-8.52521e-08 4.47886e-08 -4.99283e-08
-1.77425e-07 1.0751e-07 -1.13095e-08
-3.10408e-07 2.62781e-07 -6.95588e-08
3.54252e-05 2.4252e-05 3.33243e-05
6.90492e-06 3.90191e-06 -1.28348e-06
3.25872e-06 4.06432e-06 -1.82228e-06
3.64227e-06 4.24191e-06 -1.76657e-06
0.000172364 5.83333e-06 -2.18241e-05
0.000160696 6.61758e-06 -1.98597e-05
4.19824e-06 3.91034e-06 -1.60547e-06