# vtk DataFile Version 2.0
S, Created by Mohamad Ibrahim Cheikh
ASCII
DATASET UNSTRUCTURED_GRID
POINTS 10490 double
-223.577 20.3397 -34.7911
-223.727 23.2872 -32.766
-130.488 -29.2914 69.292
-194.382 -37.8829 -41.0234
-207.465 29.5135 40.0416
-235.873 27.4026 13.474
-191.272 -39.7113 -41.0839
14.3609 -3.07767 87.8025
-191.047 39.2387 -41.6621
-193.386 36.947 -42.4295
-251.146 3.21416 -3.38181
-251.006 5.46383 -0.715395
-204.324 29.3077 -42.1164
18.5488 -1.42389 87.7488
-201.226 30.3665 -43.1792
-151.248 68.7566 -14.6905
-148.433 69.9693 -12.2831
241.381 21.7611 -11.7084
240.377 24.3451 -8.78194
38.8927 73.0698 -47.1127
42.7434 72.3268 -47.8451
45.3526 -3.15647 -86.4998
49.2205 -1.47913 -86.2856
-145.562 -45.4894 -55.5033
-142.057 -46.9133 -55.4299
-191.797 -27.3603 49.9168
-189.472 -30.0392 49.4615
-64.3408 -67.8312 51.343
-66.4854 -66.0125 53.3402
-121.222 -41.6744 -64.8702
-205.478 44.6131 24.1767
-208.424 41.8778 25.9194
-64.8723 -22.5197 81.9855
-61.2486 -23.8904 81.9388
44.2654 4.25756 86.5216
-201.398 -44.9168 27.5782
-50.1527 82.9835 -23.4475
-46.8451 82.7107 -25.1847
-109.54 -78.4117 -11.2498
-105.514 -79.2425 -10.0789
-195.481 42.6482 35.3088
-200.946 -43.0023 30.8405
-54.4207 -15.2576 84.5495
3.47987 8.3644 87.5931
226.254 36.0728 -13.2456
223.493 37.2798 -15.4578
-146.965 22.4435 -67.7935
-143.807 23.7229 -68.1858
-167.023 -43.021 -49.7775
-163.504 -43.4755 -50.8022
-215.265 -7.15464 -44.9388
-215.165 -3.15856 -45.4532
-105.61 -17.5606 77.9108
-104.072 -21.0989 77.2839
-247.961 -12.5204 7.72455
-247.223 -12.2226 10.5723
-226.222 -18.8438 33.5163
-129.02 -40.8329 -63.5505
238.446 4.07589 -27.6839
236.191 2.11824 -30.1597
30.62 -3.65819 -87.2687
26.6532 -1.90254 -87.4838
-224.96 -22.5377 32.2522
-47.6616 -75.8705 41.3468
-235.553 -26.7703 15.3058
-109.944 51.3521 -60.2251
-237.92 -25.2882 13.1995
-16.8506 -1.34947 -87.7919
-20.0144 -3.9173 -87.6334
25.2846 7.69767 -87.2151
27.285 3.84349 -87.3961
25.3956 1.81785 -87.5313
45.9392 -6.26946 -86.292
-242.159 -16.9737 16.6274
249.587 -5.36866 -9.4094
249.11 -2.3024 -11.881
-169.132 48.1765 43.8275
30.4819 -13.4405 -86.311
-165.502 47.9517 45.7292
-244.371 -14.4423 14.9737
243.986 6.92827 20.1946
244.544 3.56469 20.2423
-218.529 -34.2523 26.9091
-142.145 -69.4107 21.2703
-139.629 -70.7397 18.787
-221.095 -32.0559 27.049
-157.97 -59.799 33.3602
-205.032 32.4704 39.2803
-154.318 -61.3629 32.6041
21.3156 7.49268 87.3627
-119.012 18.5885 75.262
-116.347 20.6858 75.225
25.5773 -59.0273 64.6505
29.111 -57.6537 65.6985
-134.419 55.1263 -49.9295
-136.682 52.6245 -51.8404
-177.081 57.9273 23.4374
-176.662 59.4071 19.8451
-69.2253 65.7752 -53.2063
-62.6997 16.983 -83.5121
-66.3221 16.9373 -83.1781
-65.7146 67.3787 -51.7243
124.434 57.7555 50.126
120.999 58.3631 50.4507
-132.441 -69.8467 26.7944
-132.815 -68.0006 30.9884
-188.838 35.134 46.3008
-185.091 37.3079 46.4523
-232.725 13.1763 -30.6506
-58.6053 75.8085 39.7061
-59.914 77.3157 36.4251
-231.926 16.8006 -29.6012
-175.27 -46.9578 -42.1658
-178.778 -11.2201 60.8692
-181.793 -8.37188 60.231
-195.803 53.7627 12.6391
-198.353 52.0764 14.6685
-195.137 -6.40082 -55.146
-196.107 -2.35992 -55.0455
-155.745 25.114 64.3703
-159.43 22.5107 64.2288
-196.21 -54.5516 -7.39894
-193.182 -56.048 -5.79625
-90.4397 75.4261 -32.4577
-86.4217 75.8546 -32.7975
-39.2326 -78.9661 -36.3305
-42.7332 -77.6528 -38.6066
-35.6758 20.8265 -84.5839
-119.246 -59.0736 -50.1337
-116.051 -58.3853 -51.8293
-103.564 -58.9076 54.4128
-107.458 -57.2139 55.2887
-176.014 46.9268 -41.8192
26.8912 14.1667 -86.341
23.7295 15.8809 -86.156
-175.584 44.5905 -44.5105
-89.4383 -39.5757 72.1
-93.3063 -38.43 72.1197
-1.70881 -75.0104 -46.0118
2.63025 -75.2472 -45.618
-158.019 -33.1904 -59.8775
-154.736 -36.6283 -58.9152
24.7171 73.3581 47.8309
27.2434 71.3575 50.6087
-166.512 38.843 53.2982
-168.932 36.4737 54.0349
126.629 60.2677 46.3533
124.961 62.2386 44.2558
55.891 20.2834 83.3675
-158.125 12.6727 67.2474
-155.539 9.86404 68.4458
-42.7565 74.3836 -44.5788
70.7865 53.1591 -65.6098
-39.8889 75.9913 -42.1251
222.064 -27.8281 -30.5327
225.276 -26.0122 -29.2254
-14.478 80.6603 -34.8174
-17.5455 79.4988 -37.2325
247.477 -7.06408 13.9945
245.671 -9.07237 16.5073
-182.882 19.8694 57.0474
-181.342 22.7138 56.5858
-54.5309 69.4413 50.5751
-52.2146 71.296 48.2399
-221.668 26.3892 -32.1216
245.288 -12.7014 14.7131
-123.33 -44.6549 -62.3517
-128.466 -46.8971 -59.3644
-126.777 -44.2459 -61.7945
-219.064 -11.0498 41.7924
-206.354 49.8867 -6.47821
-208.038 48.525 -9.51655
-173.56 -35.1355 53.118
-196.131 -34.866 -42.6472
-56.78 10.7389 85.0527
-98.6856 80.8 4.79911
-149.826 -21.4608 67.3435
-153.217 -21.704 66.3236
-104.919 79.9468 2.18714
-102.517 80.1836 5.28082
-208.258 -1.82292 -49.3019
-211.7 -0.421498 -47.5064
7.33127 77.506 -41.5961
8.22229 75.6521 -44.8607
-11.2631 86.3324 -16.5887
-15.4927 85.682 -19.3185
11.9864 75.0083 -45.8275
-209.31 34.9136 -34.0773
-209.406 37.4943 -31.1371
-243.666 12.2952 -17.9923
-205.975 40.1069 -30.6796
-237.95 16.7349 23.0633
-240.122 13.54 22.3945
-198.66 34.6901 41.3377
-44.0796 -51.8517 -69.4083
-47.9256 -52.1678 -68.8572
-63.092 78.9202 -32.0665
-59.8655 79.8778 -30.4097
-198.886 37.69 38.4791
-195.366 39.9923 38.3627
193.191 51.8488 -22.0509
191.205 51.6139 -24.577
-16.6483 73.8586 -47.4865
-15.8646 72.0226 -50.2587
-160.695 -8.66628 67.1371
-158.236 -5.13504 68.2065
-159.174 -12.1806 67.0349
-155.578 -13.9398 67.7222
-181.214 -39.3657 -46.625
-187.065 -34.8923 -47.3527
234.201 -8.19787 31.0077
231.367 -8.83936 33.3482
-185.722 -37.8038 -45.7378
-220.423 -36.3318 -21.8076
-223.2 -33.1946 -23.2995
-73.435 69.9841 46.7546
-199.23 43.3866 -31.6551
-202.393 40.531 -32.9565
-78.2927 72.2223 42.16
-74.3634 72.152 43.1399
-199.862 -47.1002 -25.201
-196.405 -49.1625 -24.5824
-156.236 -38.5566 57.1742
-155.21 -34.5986 59.9797
-162.87 56.287 -36.4429
-159.713 58.1129 -35.2689
245.94 -16.0776 8.95249
246.756 -13.0532 10.9097
-202.183 25.1296 -45.9109
246.469 -16.6405 5.45949
-222.675 -40.729 -3.8105
-219.564 -42.6762 -4.53531
-225.904 36.46 -12.9114
-224.077 36.2209 -16.8751
-228.9 -34.8683 10.6506
-231.376 -33.577 7.89247
-225.472 -37.7617 9.69429
119.523 74.8312 19.882
-172.162 -51.1028 -38.7774
115.326 75.6477 19.8266
47.9283 12.2027 -85.5211
51.5137 10.7948 -85.4552
-180.218 -22.1674 57.2384
-179.907 52.335 -32.2862
-165.44 0.852874 66.2744
-168.563 2.8324 65.248
-181.016 -17.4089 58.56
36.4513 -59.7498 63.3347
37.7861 -57.2027 65.5519
-159.984 -59.9391 -31.9019
-182.765 -21.7964 -56.3857
-184.307 -18.0274 -57.098
-11.9204 15.2879 -86.5614
-188.59 -54.9976 19.1024
-192.466 -53.1209 19.6708
-145.911 9.35452 -71.063
-143.717 12.1657 -71.1846
-174.323 52.4489 35.6738
-173.398 50.7403 38.5789
-187.152 39.7431 -43.3157
-231.489 33.5038 -7.79805
-229.084 35.9771 -4.95755
-234.896 30.8769 -5.94628
241.404 7.72141 23.4447
239.892 10.8374 24.1019
240.609 13.4025 21.8297
-138.877 -61.8294 -39.4948
-138.123 -60.1613 -42.2955
-141.494 -58.2475 -43.5903
-200.351 -41.1628 -33.6928
-218.713 20.1208 -38.5055
-52.5986 9.19123 85.5617
-56.679 -81.1825 27.5698
-60.1936 -81.4603 25.7804
-152.578 56.176 41.69
-153.298 58.0839 38.641
-189.409 -9.89167 -57.0425
-186.061 -8.87596 -58.5393
64.916 -8.69422 84.5723
67.8932 -7.04911 84.4391
-196.834 -37.2176 40.1924
-200.414 -34.608 40.3579
-180.667 -48.245 -37.6856
-174.531 -52.0915 -36.0708
-215.618 -38.5088 23.8566
-218.655 -36.4146 23.7614
-178.254 -50.9813 -35.4225
-121.377 48.0426 -60.2679
-70.6299 60.0915 59.3486
26.871 -68.295 54.6937
24.8054 -66.5831 56.8802
-87.1734 -8.54911 -82.1008
-83.9961 -6.23445 -82.7124
-27.8186 86.1916 -14.841
-31.8744 85.7614 -16.2662
-74.486 60.537 58.3096
-117.441 49.1112 -60.3612
67.0692 -10.949 -84.1035
63.3191 -11.5578 -84.3775
-122.203 44.8352 -62.4939
-75.5368 64.5546 -53.6483
-79.1145 64.6459 -52.9018
-210.937 -46.4388 -11.8314
-207.911 -47.277 -14.7164
-70.3872 -66.9037 51.5881
-81.9011 62.1468 -55.3221
180.999 57.5743 -20.452
187.788 54.7446 -20.7262
-57.9987 -57.7614 -63.2122
-60.2558 -59.9451 -60.8775
185.025 56.5079 -18.962
-52.186 5.06674 85.9355
170.803 -60.9398 -21.4147
166.658 -61.8361 -22.7994
-242.161 -11.2299 20.9365
-241.443 -7.71383 23.3976
231.622 25.8613 -22.5151
229.371 25.181 -25.8601
225.984 27.6882 -26.9256
-235.385 -18.968 -24.5117
-234.849 -16.6286 -26.7392
-226.06 27.1714 -27.3705
-222.943 28.4657 -29.1281
-220.762 31.3813 -28.1502
-250.634 -7.29238 -0.178815
-176.022 45.3189 43.5526
58.5629 51.3592 -68.4569
59.6758 48.5327 -70.3745
128.08 68.382 32.5498
131.576 68.3033 30.9696
-176.894 47.6343 40.5453
-181 46.7612 39.3249
18.7046 -86.4177 15.2692
142.02 69.3638 -21.5237
141.072 68.398 -25.0834
23.2384 -86.1703 15.8922
181.098 -44.0243 42.3153
25.6365 -86.6619 12.3796
-189.021 21.6568 -53.8577
-189.443 17.9104 -55.0396
-212.327 -45.0139 14.08
-120.84 -46.9972 -61.2168
-24.3219 -37.2662 79.2641
52.2787 18.5896 -84.0465
55.7943 16.7998 -84.1465
-25.2945 -41.1159 77.2991
-119.139 -6.50805 -77.2259
-115.758 -7.72235 -77.742
-200.041 16.4884 50.7238
-215.149 -43.2636 14.321
-153.388 33.1105 61.3774
-156.807 31.4086 61.2139
-157.699 28.2641 62.4534
-79.9684 -83.4308 0.602703
-62.2543 73.524 -43.1709
-61.7427 71.4599 -46.5915
-79.8043 -83.3553 -4.02138
-209.642 -18.6796 44.8809
-58.8592 72.1101 46.0433
-205.671 -19.6708 46.6712
-191.283 -46.3878 33.3551
-190.153 -45.0071 35.9377
-195.122 47.3341 29.0211
-192.216 -42.6375 37.4516
-97.6124 19.9707 78.6043
-93.9978 21.1034 78.8473
-195.846 -41.8707 35.9856
-247.68 -8.81018 12.4838
188.064 -42.0214 40.5964
184.929 -44.2656 39.9696
-126.991 75.5464 7.89648
-123.31 76.0967 9.57543
48.8031 1.7461 86.3096
130.442 15.6033 -73.6028
-179.645 46.5487 -40.325
198.594 13.1824 52.3606
200.489 9.43623 52.2852
113.301 74.901 23.7105
109.553 75.3627 24.394
149.536 63.7493 -30.6979
145.702 65.358 -29.5505
-166.877 -45.6673 -47.4244
129.832 19.3668 -72.8368
-209.79 43.7118 -21.0921
-206.93 46.1355 -19.3144
126.456 20.2194 -73.3305
-61.8733 -0.195738 85.2951
-59.1352 2.70832 85.4899
-53.815 -1.88664 85.9411
[...]
POINT_DATA 10490
VECTORS F double
1.38939e-08 3.04898e-08 6.89367e-09
1.2148e-07 8.63196e-08 -4.02046e-08
1.45893e-07 7.0618e-07 3.32156e-07
5.61875e-08 -7.50108e-09 -2.5668e-08
2.79928e-07 2.4616e-07 -3.86647e-09
1.75029e-07 1.86894e-07 -4.96095e-09
8.17025e-08 2.46199e-08 -7.03666e-08
-1.85666e-06 2.40375e-06 1.21435e-07
9.00392e-07 6.75049e-07 1.30282e-07
9.68064e-07 5.91877e-07 -2.47966e-08
1.17254e-08 7.09528e-08 -3.91944e-08
1.02446e-08 5.52294e-08 -1.83552e-08
1.03184e-07 3.36403e-07 1.72806e-07
-2.26268e-06 3.85552e-06 1.21121e-07
1.40988e-07 1.24406e-07 7.04825e-09
3.30503e-06 7.151e-07 -8.19092e-07
4.21523e-06 8.09264e-07 -1.62654e-06
-1.21561e-08 2.29799e-08 1.20282e-08
-1.42464e-08 2.228e-08 1.4019e-08
-2.81198e-05 8.46963e-06 1.0294e-05
-2.80922e-05 5.65841e-06 5.48114e-06
-3.26138e-06 1.9913e-06 -2.82017e-07
-2.97356e-06 1.51049e-06 -2.33562e-07
3.07168e-08 2.10345e-07 -1.82258e-07
5.69465e-08 2.37573e-07 -2.18939e-07
1.68025e-08 1.64467e-07 9.80524e-08
2.12453e-09 1.40599e-07 8.63861e-08
-4.50268e-08 1.91874e-07 2.46583e-07
-1.88112e-07 1.49078e-07 1.55789e-07
2.46451e-07 2.04423e-07 -1.87712e-07
5.38483e-07 2.45108e-07 1.08019e-07
3.63228e-07 2.67556e-07 -7.46899e-08
1.63834e-07 2.87138e-06 8.04582e-07
-2.0081e-07 1.66647e-06 4.67505e-07
-1.98773e-06 2.97913e-06 -2.2093e-08
1.51303e-08 2.82188e-08 5.94865e-08
7.49442e-05 1.2047e-05 2.30097e-05
8.06095e-05 1.39186e-05 2.73536e-05
3.99091e-08 2.9771e-10 -4.96551e-08
3.4593e-08 -2.82583e-09 -2.21218e-08
6.19105e-07 3.37429e-07 1.20738e-08
2.76553e-08 2.87731e-08 6.21801e-08
2.32967e-07 2.76111e-06 5.16624e-07
-1.60864e-06 3.75898e-06 -3.51127e-07
-2.41251e-08 1.4328e-08 -1.14312e-08
-4.07414e-08 3.66443e-08 1.62551e-08
1.23734e-06 8.43475e-07 -4.91626e-08
1.12224e-06 1.44065e-06 2.11449e-07
-4.92728e-08 9.98181e-08 -6.60285e-08
-4.27335e-08 1.12152e-07 -7.91387e-08
5.15584e-08 1.40098e-07 -5.25425e-08
6.71562e-08 1.48783e-07 -4.926e-08
9.32647e-07 2.2179e-06 6.54685e-07
1.04055e-06 2.15766e-06 7.60606e-07
-3.87936e-08 9.50142e-08 1.55093e-09
-2.72038e-08 7.17983e-08 5.12661e-09
5.88929e-08 9.49922e-08 1.02074e-07
1.76105e-07 3.51224e-08 -6.63395e-08
-2.01979e-08 1.32939e-08 -1.93428e-08
-1.91548e-08 8.13929e-09 -1.77946e-08
-2.5088e-06 3.13556e-06 -2.39208e-07
-2.31324e-06 4.01154e-06 -1.73523e-07
1.40872e-08 8.50269e-08 7.14461e-08
-3.84938e-08 5.66651e-08 9.85465e-08
-1.04691e-08 1.21388e-08 1.50609e-09
1.00776e-05 5.6056e-06 2.52735e-06
-2.01439e-08 3.6081e-08 2.46761e-08
-1.75703e-07 4.78399e-06 -6.94065e-08
3.16044e-07 3.86574e-06 -1.81638e-07
-9.65497e-07 6.63741e-06 5.51555e-07
-3.19266e-06 5.33956e-06 1.12792e-07
-2.20743e-06 4.21104e-06 9.04597e-09
-1.37373e-06 2.28377e-06 -2.55461e-07
5.80425e-09 4.38619e-08 5.51251e-08
2.7498e-09 1.3857e-08 1.02119e-09
-3.7275e-09 4.87287e-09 -1.05096e-08
4.12347e-07 3.6829e-07 -2.10014e-07
1.00257e-06 1.73845e-06 -2.27364e-07
5.58062e-07 5.39066e-07 -3.17987e-07
1.3685e-09 2.81498e-08 2.98867e-08
-1.04265e-08 1.14535e-08 1.14942e-08
-3.03116e-09 1.178e-08 2.40782e-09
2.02072e-08 1.51867e-08 3.94227e-08
2.72862e-08 6.33579e-09 4.29975e-08
1.42038e-08 3.55483e-09 2.63072e-08
1.67589e-08 1.76559e-08 3.76945e-08
3.98231e-08 3.39135e-08 8.38775e-08
2.3903e-07 2.81934e-07 -8.03025e-08
4.13099e-08 2.90168e-08 7.85502e-08
-7.19019e-07 4.60459e-06 -3.73436e-07
2.11234e-06 2.58843e-06 -2.30348e-07
1.98099e-06 3.00186e-06 -4.50351e-07
-2.39091e-08 2.02739e-07 1.86263e-07
-6.78111e-08 2.97272e-07 2.6455e-07
4.44765e-06 2.58624e-06 1.38945e-06
5.043e-06 2.26919e-06 6.75635e-07
4.55873e-07 3.26798e-07 -3.86007e-07
1.22037e-06 5.4215e-07 -2.92889e-07
2.22648e-05 1.62543e-05 1.65475e-05
1.82003e-06 2.31793e-06 3.0408e-07
1.58961e-06 1.09566e-06 6.79284e-08
2.17463e-05 1.79336e-05 1.99787e-05
-1.08375e-06 3.55971e-07 -8.07742e-08
-1.14536e-06 4.35954e-07 -1.68012e-07
4.29879e-09 1.3339e-08 3.73734e-08
4.24907e-10 1.8475e-08 4.07655e-08
9.72769e-07 5.21989e-07 8.96409e-08
9.74263e-07 6.21689e-07 -2.40298e-08
5.82929e-08 8.20813e-08 -1.89035e-08
4.05678e-05 1.78493e-05 -2.67477e-05
4.05064e-05 1.76088e-05 -2.9219e-05
3.38915e-08 8.45851e-08 1.5497e-08
4.34215e-08 -2.23647e-08 2.80805e-09
4.39875e-07 3.76332e-07 2.27544e-07
2.2225e-07 1.42062e-07 1.01874e-07
6.357e-07 3.4567e-07 -2.64651e-07
7.62124e-07 3.64268e-07 -3.14959e-08
-5.1115e-09 1.13211e-07 -1.09271e-08
1.19586e-07 1.56071e-07 -5.88524e-08
4.04363e-07 2.20077e-06 -7.38847e-07
1.17079e-06 9.35807e-07 2.78254e-08
8.20437e-09 -2.11203e-09 -1.10709e-08
-1.01608e-09 -8.12514e-10 1.20057e-08
2.40914e-05 6.59693e-06 7.11158e-06
2.52263e-05 8.12565e-06 1.06549e-05
-4.29417e-08 5.09367e-08 -1.05036e-07
-2.84966e-08 6.59718e-08 -1.28833e-07
8.85431e-07 8.94409e-06 2.15652e-06
1.2706e-07 1.53249e-07 -2.17578e-07
1.24593e-07 1.77666e-07 -2.34295e-07
4.29774e-08 1.50855e-07 1.73332e-07
8.90124e-08 2.40547e-07 2.70105e-07
2.18156e-06 6.87867e-07 -3.52285e-07
-6.68342e-07 6.23217e-06 9.97083e-07
-2.18908e-06 3.97163e-06 6.58267e-07
7.56555e-07 1.48803e-07 -2.16318e-07
2.61239e-07 5.82188e-07 3.59239e-07
3.13038e-07 8.7099e-07 5.13704e-07
-6.35876e-08 8.53653e-08 -1.38878e-07
-6.21784e-08 6.23884e-08 -1.03349e-07
1.22415e-07 2.28704e-07 -1.66324e-07
2.7925e-08 1.44406e-07 -9.87587e-08
-1.93419e-05 1.7434e-05 -2.55148e-05
-2.60658e-05 1.4472e-05 -1.86874e-05
2.49344e-06 1.11436e-06 1.41594e-07
2.18735e-06 1.26499e-06 -1.6643e-08
-6.12175e-07 1.58817e-07 -1.74393e-09
-1.40573e-06 3.96526e-08 4.30189e-07
-1.27557e-06 1.25444e-06 -2.00509e-07
9.32059e-07 9.79602e-07 8.37197e-08
2.76734e-07 2.74203e-07 3.74761e-08
4.54456e-05 2.57969e-05 3.77078e-05
-6.33623e-06 3.45431e-06 1.96184e-06
5.45718e-05 2.25267e-05 3.43102e-05
-2.6958e-09 8.53935e-09 -1.0183e-08
-1.77778e-09 6.68088e-09 -7.62359e-09
0.000117859 2.64489e-05 5.52728e-05
0.000104915 3.01547e-05 5.83332e-05
-7.26176e-10 -4.77578e-10 1.32982e-09
-1.28892e-09 7.76529e-10 2.77361e-09
3.76914e-07 5.3715e-07 -3.91527e-08
3.36793e-07 5.84932e-07 -1.02651e-07
3.49654e-05 2.5719e-05 -3.06974e-05
3.88102e-05 2.45978e-05 -3.12111e-05
1.8952e-07 7.5462e-08 -9.81273e-08
-4.26468e-09 -1.75223e-09 7.19164e-09
2.37727e-07 1.86778e-07 -1.91336e-07
1.496e-08 1.24692e-07 -1.02469e-07
2.21014e-07 3.56966e-08 -8.10733e-08
2.03643e-09 1.30875e-07 3.59116e-08
5.17821e-07 2.7655e-07 1.10194e-07
5.61306e-07 3.02127e-07 3.82556e-08
9.78117e-08 1.37179e-07 1.29866e-07
8.80915e-08 3.70788e-09 -5.26302e-08
2.32783e-06 3.61202e-06 -2.65795e-07
2.55792e-05 3.95516e-06 -2.19274e-06
-3.12014e-08 2.72131e-07 7.82243e-08
-6.31553e-08 3.66171e-07 1.01965e-07
2.2339e-05 3.69308e-06 -3.7932e-06
2.41778e-05 4.05003e-06 -4.03024e-06
4.64283e-08 9.08803e-08 -2.73712e-08
6.42991e-08 1.79763e-07 -3.6675e-08
6.48422e-05 3.8231e-05 7.26352e-05
1.74008e-05 3.41737e-05 5.80203e-05
0.000179348 6.80328e-06 2.04965e-05
0.000163658 7.96877e-06 1.92737e-05
1.85275e-05 3.22797e-05 5.34273e-05
2.89934e-07 2.14215e-07 1.44116e-09
8.11489e-07 4.4127e-07 -1.36803e-07
1.00523e-07 1.72788e-07 -4.85996e-08
7.34465e-07 5.55768e-07 1.22838e-07
6.75495e-08 1.97935e-07 -5.82969e-08
7.97527e-08 1.66762e-07 3.86863e-09
4.06718e-07 -1.56851e-07 3.70931e-07
4.35e-07 3.21876e-07 -2.7428e-07
4.00605e-07 4.04878e-07 -3.40881e-07
5.02331e-05 1.50989e-05 2.50598e-05
5.40981e-05 1.40882e-05 2.39669e-05
6.67911e-07 -2.30553e-08 4.45242e-07
5.00393e-07 2.8267e-07 1.73142e-08
-8.15661e-08 3.8292e-08 2.54408e-09
-1.13903e-07 6.1505e-08 2.06748e-08
4.90635e-05 4.21342e-05 6.3428e-05
2.45208e-05 3.88301e-05 5.46974e-05
7.28284e-07 4.08676e-07 2.66172e-07
8.8942e-07 3.40172e-07 2.78237e-07
2.04031e-07 1.56057e-07 8.76716e-08
3.16458e-07 3.61543e-07 1.63427e-07
9.87043e-08 9.49415e-08 -1.27127e-07
1.11492e-07 7.37679e-08 -1.08281e-07
1.62714e-09 1.08426e-08 1.36215e-09
1.19813e-09 1.06152e-08 1.79518e-09
8.52735e-08 6.06118e-08 -9.24903e-08
3.49988e-09 2.28688e-09 -8.13944e-09
-1.04978e-09 4.33751e-09 -4.94984e-09
2.66413e-05 1.26327e-05 -1.3786e-05
7.48694e-07 5.867e-07 2.27226e-07
7.72044e-07 5.55108e-07 1.02211e-07
2.32524e-05 9.13343e-06 -1.03594e-05
2.60825e-05 1.25436e-05 -1.54748e-05
4.02312e-09 1.31781e-08 -2.85373e-08
4.93121e-10 7.02436e-09 -1.45315e-08
7.05242e-08 2.63016e-07 2.00965e-07
2.02875e-07 2.44162e-07 2.05116e-07
1.53761e-06 1.04528e-06 7.73125e-07
1.90842e-06 9.37962e-07 4.8742e-07
2.08472e-09 7.47589e-09 6.41728e-09
7.06281e-10 7.99935e-09 7.61424e-09
3.14901e-07 2.25172e-07 -4.65333e-08
6.60808e-10 3.22284e-09 6.16933e-09
-2.74426e-08 1.92589e-08 -9.51872e-09
-2.08189e-08 9.54934e-09 3.354e-08
2.95694e-07 2.26269e-07 5.53798e-09
3.80882e-07 2.96461e-07 1.71246e-08
1.26412e-08 -1.8229e-09 2.72971e-08
-1.84884e-09 1.12431e-08 4.11951e-08
2.1501e-09 -5.47072e-09 -1.51863e-08
-1.97788e-06 2.0714e-07 6.76097e-07
5.06262e-08 -1.98617e-08 -1.34399e-09
-2.05415e-06 2.59588e-07 4.72401e-07
5.58452e-07 1.57846e-06 2.63543e-07
4.81438e-07 1.07797e-06 1.71703e-07
1.12785e-07 3.10513e-07 1.63733e-07
1.44996e-06 5.03065e-07 -1.73736e-07
4.64285e-07 2.09891e-07 1.39195e-07
4.75446e-07 2.908e-07 1.37756e-07
1.56801e-07 3.36422e-07 1.59354e-07
-3.8597e-08 1.97921e-07 1.89437e-07
-1.84369e-08 2.0968e-07 1.84276e-07
4.17909e-08 1.08155e-08 -4.59792e-08
6.81396e-08 6.22524e-08 -5.11045e-08
2.15178e-07 1.18213e-07 -1.2236e-07
4.89636e-07 8.58184e-06 1.50742e-06
7.51252e-09 9.56211e-09 3.66101e-08
2.51674e-09 8.26964e-09 2.53456e-08
1.02477e-06 7.249e-07 -1.62186e-07
8.17059e-07 9.92667e-07 -3.23107e-08
1.61877e-06 1.00889e-06 -5.14848e-07
1.2171e-06 8.07693e-07 -3.92556e-07
1.01082e-06 9.6102e-07 3.47051e-07
3.38995e-07 2.86323e-07 -1.89075e-09
3.13745e-07 2.54624e-07 7.28156e-08
2.67707e-07 2.11532e-07 -1.96332e-07
-1.2345e-08 2.07614e-08 8.72592e-09
-8.38471e-09 2.59711e-08 -1.46105e-09
-8.80646e-09 2.54496e-08 -3.74084e-09
7.24345e-08 2.77954e-08 -7.46981e-08
1.46841e-08 5.35561e-08 -8.20498e-08
7.2923e-08 1.09129e-07 -1.74804e-07
-1.02267e-08 6.30439e-08 -6.95766e-08
1.25611e-07 1.93995e-07 1.40196e-08
3.28378e-06 5.41022e-06 -3.34028e-07
2.6384e-08 2.00068e-08 6.55538e-08
1.94813e-08 1.94224e-08 6.69378e-08
1.21003e-06 2.96631e-07 1.42492e-07
3.05467e-06 1.02685e-06 -5.98328e-08
1.36049e-07 2.38384e-07 -9.66462e-08
1.82253e-07 1.40918e-07 -9.22878e-08
9.42664e-08 5.9576e-07 5.23862e-08
-6.33609e-08 9.87767e-07 8.86967e-08
2.15015e-08 7.15641e-08 7.91593e-08
1.61313e-08 7.2686e-08 7.21382e-08
2.11784e-08 2.20991e-08 -4.07222e-08
1.87513e-08 3.41308e-09 -1.6038e-08
1.60711e-08 3.14393e-09 2.28578e-08
1.81259e-08 1.18273e-08 3.85467e-08
1.51928e-08 1.65715e-08 -3.32104e-08
6.40909e-06 3.63143e-06 1.3145e-06
2.32117e-05 1.67538e-05 -1.35815e-05
-4.0445e-09 2.25912e-07 2.82335e-07
-1.18581e-07 1.82967e-07 2.20509e-07
7.9483e-07 1.57435e-06 -2.6726e-07
6.76022e-07 1.89918e-06 -2.27201e-07
0.000131895 8.81319e-06 2.0915e-05
0.000119838 1.01318e-05 2.4668e-05
2.14929e-05 1.46334e-05 -1.1831e-05
6.49534e-06 4.58269e-06 2.18135e-06
-9.16528e-07 7.46618e-07 -1.86682e-07
-9.55242e-07 6.70993e-07 -1.79673e-07
4.30655e-06 3.5961e-06 1.54894e-06
2.054e-05 1.47131e-05 1.41635e-05
1.86973e-05 1.2006e-05 1.12479e-05
1.47366e-09 -6.25669e-09 2.13415e-08
-2.04082e-08 1.48527e-08 -1.24128e-08
-1.35788e-07 6.65899e-08 6.36764e-08
1.75972e-05 1.19689e-05 1.02559e-05
-2.12729e-07 6.25501e-08 -5.44112e-08
-1.673e-07 7.86775e-08 2.22309e-08
-4.47174e-07 2.82298e-07 -2.07723e-07
-2.73696e-07 1.61593e-07 -1.25951e-07
-2.0848e-07 7.92166e-08 -1.29879e-08
1.30344e-06 4.95159e-06 -1.95034e-07
1.01679e-08 5.88678e-09 -6.82332e-09
1.05631e-08 7.84191e-09 -1.18143e-08
-1.28196e-08 3.1306e-08 -1.35828e-09
7.87139e-09 2.18635e-08 1.71549e-08
-5.74261e-09 1.48172e-08 9.78629e-09
-1.62643e-08 2.9987e-08 1.1539e-08
-2.00416e-08 2.60137e-08 6.15526e-09
-3.0712e-08 5.34603e-08 -5.2621e-09
4.28642e-08 2.66187e-09 -4.77488e-08
2.59955e-07 3.04661e-07 3.95816e-08
2.6356e-07 1.50229e-07 -1.00163e-07
1.95388e-07 1.8335e-07 1.67951e-08
-2.20709e-08 9.31738e-08 -1.26912e-08
9.39959e-07 4.2576e-07 2.20815e-08
-4.3955e-06 4.14835e-06 2.6519e-06
-3.1706e-06 4.23701e-06 2.59283e-06
-1.06149e-06 5.22355e-08 4.01637e-07
-9.26889e-07 -4.88719e-08 5.8991e-07
1.43047e-06 6.65821e-07 -1.81445e-08
1.31053e-06 2.57992e-07 4.31717e-07
-1.49158e-08 1.00464e-08 5.90977e-08
-5.42051e-07 -2.24066e-08 -5.10096e-07
-9.29821e-07 6.36526e-08 -4.66671e-07
-4.30988e-09 7.41067e-10 4.78998e-09
-1.18162e-08 6.88125e-09 1.33499e-08
-1.10212e-08 -7.31164e-10 -2.32232e-09
1.58461e-07 4.74651e-07 1.22774e-07
1.30741e-07 4.61784e-07 9.51738e-08
-2.6304e-08 2.18325e-08 2.12351e-08
3.37576e-07 2.35034e-07 -2.62023e-07
-3.35803e-08 2.75498e-07 1.28265e-07
-1.43697e-06 2.21741e-06 3.81021e-07
-1.37801e-06 2.0774e-06 3.02888e-07
-1.36479e-07 2.53671e-07 1.29462e-07
-6.11645e-08 1.00443e-06 -7.30942e-08
1.46532e-09 1.07245e-06 -1.06797e-07
3.11193e-07 5.63152e-07 -3.2804e-08
-2.53133e-08 2.63864e-08 3.31557e-08
1.54829e-06 2.33504e-06 -7.85928e-07
1.6961e-06 1.76698e-06 -3.74696e-07
-1.22918e-08 1.95382e-06 -8.88024e-07
-3.23828e-08 3.73388e-09 -9.24559e-09
3.2191e-05 1.92145e-05 2.70408e-05
2.62704e-05 1.87454e-05 2.44885e-05
8.63238e-09 -4.41231e-10 -1.18309e-08
5.00269e-09 7.61583e-08 3.45587e-08
3.65037e-05 2.04069e-05 -2.62467e-05
1.69044e-08 1.31812e-07 6.46768e-08
2.52143e-08 2.76286e-08 5.61268e-08
4.13441e-08 2.35321e-08 5.62545e-08
3.56582e-07 3.54376e-07 -2.84471e-07
2.72326e-08 2.38526e-08 4.4268e-08
2.77824e-06 5.23648e-06 -9.08016e-07
3.34892e-06 4.32409e-06 -6.6854e-07
1.40729e-08 6.5884e-08 8.6035e-08
-1.20608e-08 7.06342e-08 2.05569e-08
-2.67462e-08 1.4388e-08 3.00614e-08
-1.38948e-08 3.81064e-10 8.29309e-09
6.78378e-06 1.44315e-06 -4.50001e-07
8.48902e-06 2.09859e-06 -3.29356e-06
-2.36851e-06 2.08108e-06 1.21864e-07
-1.87609e-07 4.18401e-07 4.79922e-08
2.16819e-06 8.67639e-07 -1.81024e-07
-6.15503e-08 8.30424e-08 7.67422e-09
-2.52717e-08 9.71982e-08 -5.67756e-09
-1.96356e-06 1.65618e-07 6.25566e-07
-2.19427e-06 4.86468e-07 -2.96414e-07
-9.84193e-07 2.28977e-07 -1.11448e-07
-1.15434e-06 1.33088e-07 -4.0247e-07
-7.12459e-08 9.55556e-08 -6.13228e-08
-4.82723e-07 4.05955e-07 2.59562e-09
4.70923e-07 1.59214e-07 -2.43505e-07
4.71669e-07 1.76677e-07 -1.96668e-07
-5.06218e-07 4.19368e-07 8.75601e-09
6.61589e-07 4.56068e-06 6.92246e-08
1.58219e-06 3.97433e-06 8.08808e-09
1.07505e-06 3.6666e-06 1.62911e-07
1.35224e-08 1.52259e-08 5.51463e-08
6.82016e-06 1.46703e-06 1.33532e-07
7.56334e-06 1.61683e-06 -1.05909e-06
-1.26584e-06 6.25823e-06 -1.0953e-06
1.30044e-08 -2.16395e-09 1.53881e-08
1.81136e-06 4.15236e-06 5.05329e-08
3.93626e-06 6.93385e-06 3.54917e-06
4.53736e-06 5.60939e-06 2.45302e-06
7.84788e-06 6.75099e-06 3.18416e-06
1.1359e-07 4.07358e-07 7.10708e-08
8.59231e-08 5.18029e-07 5.30774e-08
-3.28562e-07 1.49736e-06 1.728e-07
-9.96657e-08 8.60333e-07 1.0536e-07
6.44274e-07 2.81936e-07 1.3567e-07
3.53142e-07 5.09524e-07 1.06828e-07
1.82676e-06 6.19106e-07 -2.43349e-08
2.3347e-06 9.47298e-07 2.99675e-07
-3.91217e-08 8.50516e-10 2.9854e-08
-3.336e-08 -2.79456e-09 1.49894e-08
7.46347e-08 1.7679e-08 -7.90242e-08
5.90311e-08 7.79393e-09 -4.79814e-08
-2.21083e-08 7.26377e-08 1.09351e-07
1.57576e-08 5.93063e-08 1.16262e-07
-1.49218e-08 6.12409e-08 1.0209e-07
2.58426e-07 9.91913e-08 1.94968e-07
3.82377e-07 2.31538e-07 -5.56807e-08
5.3411e-07 2.51762e-07 1.33148e-07
2.31509e-08 7.24025e-08 -7.92394e-08
1.24956e-08 7.37726e-08 -7.54961e-08
-2.83459e-08 5.60691e-07 -3.26538e-07
4.29342e-08 3.31523e-07 -1.98632e-07
-6.88508e-07 3.15407e-06 -5.59095e-07
-1.22148e-06 2.45829e-06 -4.47239e-07
-1.37048e-08 6.08441e-08 -5.40259e-08
2.02841e-07 2.77903e-09 -4.18309e-08
-2.16133e-08 5.54345e-09 1.24988e-08
1.31465e-08 3.18983e-08 -4.95518e-08
-1.24359e-06 3.80143e-06 -1.65337e-07
-7.33032e-08 3.78101e-07 -2.80857e-07
-1.3602e-07 3.29636e-07 -2.32614e-07
1.93791e-05 2.41719e-05 2.38807e-05
1.56941e-06 7.95533e-07 1.11315e-06
7.09824e-05 6.10156e-06 6.47262e-06
7.89722e-05 6.27549e-06 -2.89156e-06
6.60592e-05 6.40978e-06 -9.65611e-06
7.65051e-05 6.07031e-06 -4.36149e-07
1.78782e-06 7.84041e-07 9.96967e-07
1.86178e-05 2.07097e-05 1.97489e-05
1.68326e-05 2.08699e-05 1.84016e-05
4.42995e-08 2.79671e-08 -7.84914e-08
-2.48809e-08 5.60122e-09 -2.79646e-08
-1.20046e-08 4.61924e-09 -5.10725e-08
4.97622e-08 1.74357e-08 -6.50065e-08
2.25371e-08 7.91651e-09 -3.17038e-08
1.34217e-07 2.33955e-07 8.21824e-08
1.01675e-07 3.42365e-07 2.02006e-07
-6.57724e-07 8.97494e-08 2.34817e-07
-1.66964e-05 7.71511e-06 -7.78393e-06
-1.78709e-05 7.64288e-06 -8.12389e-06
-8.22919e-07 8.37538e-07 -2.32131e-07
2.05662e-07 1.97759e-07 -1.60448e-07
3.52266e-07 3.6838e-07 1.06864e-07
1.83853e-07 4.95989e-07 -2.63839e-07
1.73465e-07 2.10908e-07 -1.41926e-07
1.25318e-07 4.52437e-09 7.46207e-08
1.02731e-07 5.42297e-08 1.31072e-07
6.48882e-08 3.25922e-08 8.47757e-08
1.12578e-06 1.50514e-06 -1.02859e-07
1.2505e-06 1.69826e-06 -1.05776e-07
-2.45917e-05 1.83088e-05 -2.94776e-05
-1.08585e-07 2.28317e-07 4.63522e-09
3.46624e-08 6.67694e-09 2.26076e-08
-2.84959e-08 6.85908e-08 1.24744e-07
5.98599e-07 1.79296e-06 -1.90744e-07
6.336e-07 1.34465e-06 -1.64403e-07
-6.15451e-08 1.0242e-07 -2.25028e-09
1.1205e-07 1.78699e-07 4.54409e-09
-1.21527e-07 1.82743e-07 -1.36442e-08
-1.73961e-05 1.73057e-06 1.57802e-07
3.45142e-09 1.21443e-07 -5.8576e-08
-3.74282e-09 1.03488e-07 -5.13213e-08
-1.18107e-05 5.49604e-07 -1.09087e-06
7.51893e-07 6.81785e-07 -2.30382e-07
-1.50203e-05 3.01179e-06 2.26266e-06
-1.08301e-08 9.87854e-08 2.5338e-09
1.48683e-06 5.68986e-07 9.30716e-08
1.66038e-06 4.46672e-07 4.16655e-07
2.30926e-09 6.48119e-08 -3.31829e-08
-8.74393e-09 7.70035e-08 2.36419e-08
1.09649e-07 1.95174e-07 -1.15668e-07
1.75291e-08 -1.0544e-08 -1.68192e-08
1.73051e-08 9.31918e-11 -3.53121e-08
4.27836e-07 4.37608e-07 -1.11554e-07
5.27901e-07 3.69289e-07 6.64467e-08
2.46863e-06 1.89888e-06 7.31649e-07
2.92422e-05 2.10681e-05 2.68957e-05
2.28878e-05 2.08931e-05 2.49272e-05
1.85503e-08 8.70421e-10 1.74517e-09
-1.54994e-08 3.16204e-10 -1.72332e-08
2.36918e-05 2.09111e-05 2.32486e-05
3.44754e-07 9.32468e-08 1.47808e-07
1.79466e-07 1.37662e-07 1.66555e-08
-2.08061e-08 5.40417e-08 -1.00275e-09
-1.04174e-07 2.05931e-07 1.84931e-07
-9.10943e-08 2.26419e-07 1.85916e-07
-3.45411e-07 3.32325e-06 2.86264e-07
-1.02294e-07 4.44777e-08 4.11511e-08
-2.38245e-08 1.21182e-07 9.57258e-08
1.33271e-06 2.80404e-05 -4.8511e-05
4.28567e-06 2.76966e-05 -4.34717e-05
-4.92821e-07 3.30869e-06 2.98711e-07
1.03671e-06 1.14138e-06 -2.1794e-07
-1.50434e-07 2.85874e-06 3.81562e-07
-2.52811e-09 -3.69911e-09 -2.14452e-08
4.33317e-07 7.84901e-07 -1.73397e-07
8.95871e-06 2.92587e-05 -2.88684e-05
4.48742e-07 6.27326e-07 -8.45027e-08
8.62755e-07 5.71972e-07 5.6226e-07
5.69955e-08 1.00586e-07 -5.04262e-08
-3.15808e-08 4.57421e-08 2.9848e-08
9.76642e-09 2.48335e-09 -4.59644e-09
-4.29654e-09 3.67281e-09 -2.32214e-08
-2.03447e-05 1.7362e-05 -1.71028e-05
-2.92218e-08 6.04493e-08 9.48419e-08
1.18237e-06 4.54388e-07 -1.31938e-07
-5.80514e-09 -2.87025e-09 1.9357e-09
6.84726e-08 1.31269e-07 1.43872e-07
2.23437e-08 7.0593e-10 2.25332e-08
1.19155e-05 2.11909e-05 -1.5828e-05
2.53045e-07 9.09034e-08 -1.03947e-07
1.24333e-05 2.16049e-05 -1.79587e-05
0.000257379 -8.82501e-07 -2.48949e-05
0.000238203 1.61356e-06 -3.19726e-05
1.61209e-08 9.71718e-08 9.34782e-08
0.000160097 1.8282e-05 -5.43234e-05
1.42676e-08 1.09507e-07 8.9841e-08
-5.68562e-08 7.22579e-08 1.30627e-08
-6.58854e-08 5.27448e-08 -6.721e-09
4.31495e-08 1.50631e-07 1.27462e-07
9.76145e-07 1.01046e-06 -3.19977e-07
1.4613e-08 -1.75464e-11 -9.01713e-09
3.31087e-07 2.53113e-07 -7.98417e-08
3.12966e-05 2.87041e-05 -3.15559e-05
3.32446e-07 1.79792e-07 7.35772e-08
3.36386e-07 1.45865e-07 1.3054e-07
3.40702e-07 1.7165e-07 1.10727e-07
3.1919e-05 2.06841e-05 2.85944e-05
-9.59266e-08 5.13906e-08 -1.98076e-08
-8.42674e-08 4.42373e-08 -4.9615e-08
-1.76724e-07 1.06428e-07 -1.07619e-08
-3.08975e-07 2.60654e-07 -6.85891e-08
3.54489e-05 2.39516e-05 3.28895e-05
6.8676e-06 3.91016e-06 -1.29683e-06
3.26997e-06 4.03408e-06 -1.8016e-06
3.65892e-06 4.22425e-06 -1.75325e-06
0.000170624 5.71592e-06 -2.14964e-05
0.000158985 6.50194e-06 -1.96112e-05