# vtk DataFile Version 2.0
S, Created by Mohamad Ibrahim Cheikh
ASCII
DATASET UNSTRUCTURED_GRID
POINTS 10490 double
-223.577 20.3397 -34.7911
-223.727 23.2873 -32.7661
-130.488 -29.2907 69.2924
-194.382 -37.8829 -41.0235
-207.465 29.5138 40.0416
-235.873 27.4028 13.474
-191.272 -39.7112 -41.084
14.359 -3.07526 87.8026
-191.046 39.2394 -41.662
-193.385 36.9476 -42.4296
-251.146 3.21423 -3.38185
-251.006 5.46389 -0.715414
-204.324 29.3081 -42.1162
18.5465 -1.42003 87.7489
-201.226 30.3667 -43.1792
-151.245 68.7573 -14.6913
-148.429 69.9701 -12.2847
241.381 21.7611 -11.7083
240.377 24.3451 -8.78193
38.8648 73.0784 -47.1022
42.7155 72.3325 -47.8396
45.3493 -3.15448 -86.5001
49.2175 -1.47761 -86.2858
-145.562 -45.4892 -55.5035
-142.057 -46.913 -55.4302
-191.797 -27.3602 49.9169
-189.472 -30.039 49.4616
-64.3409 -67.831 51.3432
-66.4856 -66.0123 53.3403
-121.222 -41.6742 -64.8704
-205.477 44.6133 24.1768
-208.423 41.8781 25.9193
-64.8721 -22.5169 81.9863
-61.2488 -23.8887 81.9393
44.2634 4.26055 86.5215
-201.398 -44.9168 27.5783
-50.078 82.9955 -23.4248
-46.7648 82.7245 -25.1577
-109.54 -78.4117 -11.2498
-105.514 -79.2425 -10.0789
-195.481 42.6485 35.3088
-200.946 -43.0023 30.8406
-54.4205 -15.2549 84.55
3.47826 8.36817 87.5928
226.254 36.0728 -13.2456
223.493 37.2798 -15.4577
-146.964 22.4443 -67.7935
-143.806 23.7243 -68.1856
-167.023 -43.0209 -49.7776
-163.504 -43.4754 -50.8023
-215.265 -7.1545 -44.9389
-215.165 -3.15841 -45.4533
-105.61 -17.5584 77.9114
-104.071 -21.0967 77.2846
-247.961 -12.5203 7.72455
-247.223 -12.2225 10.5724
-226.222 -18.8438 33.5164
-129.02 -40.8329 -63.5506
238.446 4.0759 -27.6839
236.191 2.11825 -30.1598
30.6175 -3.65505 -87.269
26.6509 -1.89853 -87.4839
-224.96 -22.5377 32.2523
-47.6616 -75.8704 41.3469
-235.553 -26.7702 15.3058
-109.934 51.3577 -60.2226
-237.92 -25.2882 13.1996
-16.8508 -1.34469 -87.792
-20.0141 -3.91343 -87.6336
25.2836 7.70431 -87.2146
27.2819 3.84883 -87.396
25.3934 1.82207 -87.5313
45.9378 -6.26717 -86.2923
-242.159 -16.9737 16.6274
249.587 -5.36864 -9.4094
249.11 -2.30239 -11.881
-169.131 48.1768 43.8273
30.4829 -13.4388 -86.3113
-165.501 47.9522 45.7289
-244.371 -14.4423 14.9737
243.986 6.92828 20.1946
244.544 3.5647 20.2423
-218.529 -34.2523 26.9092
-142.145 -69.4107 21.2703
-139.629 -70.7397 18.787
-221.095 -32.0558 27.049
-157.969 -59.799 33.3603
-205.032 32.4707 39.2802
-154.318 -61.3629 32.6042
21.3149 7.49729 87.3623
-119.01 18.5911 75.2618
-116.345 20.6888 75.2245
25.5773 -59.0271 64.6507
29.1109 -57.6534 65.6988
-134.415 55.1289 -49.9282
-136.677 52.6267 -51.8397
-177.08 57.9276 23.437
-176.66 59.4077 19.8448
-69.2031 65.7914 -53.1898
-62.6978 16.9854 -83.5118
-66.3205 16.9384 -83.1781
-65.6929 67.3965 -51.7045
124.433 57.7558 50.126
120.998 58.3635 50.4505
-132.441 -69.8467 26.7945
-132.815 -68.0006 30.9884
-188.837 35.1346 46.3009
-185.09 37.3085 46.4523
-232.725 13.1763 -30.6506
-58.5648 75.8263 39.6795
-59.8736 77.3332 36.3961
-231.926 16.8006 -29.6012
-175.27 -46.9579 -42.1658
-178.777 -11.2197 60.8694
-181.792 -8.37174 60.2311
-195.802 53.763 12.6388
-198.352 52.0768 14.6685
-195.137 -6.4007 -55.146
-196.107 -2.35976 -55.0456
-155.745 25.1162 64.3696
-159.429 22.5117 64.2289
-196.21 -54.5516 -7.39895
-193.182 -56.048 -5.79623
-90.4156 75.4327 -32.4506
-86.3965 75.8627 -32.7869
-39.2326 -78.9661 -36.3306
-42.7333 -77.6527 -38.6067
-35.6749 20.8354 -84.5817
-119.246 -59.0734 -50.1339
-116.051 -58.3851 -51.8295
-103.564 -58.9075 54.413
-107.458 -57.2137 55.289
-176.012 46.9275 -41.8196
26.8905 14.1729 -86.34
23.7273 15.8849 -86.1553
-175.583 44.5906 -44.5108
-89.4381 -39.5751 72.1004
-93.306 -38.4291 72.1202
-1.70888 -75.0103 -46.0119
2.63019 -75.2472 -45.6181
-158.019 -33.1902 -59.8777
-154.736 -36.6282 -58.9153
24.6985 73.3758 47.8049
27.2175 71.372 50.5899
-166.509 38.8441 53.2984
-168.929 36.475 54.0348
126.629 60.2679 46.3533
124.96 62.2386 44.2563
55.8897 20.2847 83.3673
-158.124 12.6737 67.2475
-155.538 9.86431 68.4458
-42.711 74.4092 -44.5413
70.7801 53.1626 -65.6078
-39.8343 76.0136 -42.0911
222.064 -27.8281 -30.5327
225.276 -26.0122 -29.2254
-14.3602 80.6864 -34.7627
-17.4406 79.5286 -37.1748
247.477 -7.06408 13.9945
245.671 -9.07237 16.5073
-182.882 19.8699 57.0474
-181.342 22.7144 56.5857
-54.496 69.4669 50.5445
-52.1759 71.3205 48.2088
-221.668 26.3892 -32.1217
245.288 -12.7014 14.7131
-123.33 -44.6548 -62.3518
-128.466 -46.8969 -59.3646
-126.777 -44.2458 -61.7945
-219.064 -11.0497 41.7925
-206.354 49.887 -6.4781
-208.037 48.5253 -9.51652
-173.56 -35.1354 53.1181
-196.131 -34.866 -42.6473
-56.7777 10.7425 85.0524
-98.6601 80.8039 4.79691
-149.826 -21.4606 67.3436
-153.217 -21.7037 66.3237
-104.897 79.9505 2.18338
-102.493 80.1876 5.27681
-208.258 -1.82283 -49.3019
-211.7 -0.421318 -47.5065
7.39779 77.5442 -41.5234
8.24076 75.6864 -44.8024
-11.0846 86.3391 -16.5684
-15.3298 85.6899 -19.2995
12.0059 75.0407 -45.7739
-209.31 34.9138 -34.0773
-209.405 37.4947 -31.1372
-243.666 12.2954 -17.9924
-205.974 40.1075 -30.6795
-237.95 16.7351 23.0632
-240.122 13.5402 22.3945
-198.659 34.6899 41.3381
-44.0792 -51.8514 -69.4086
-47.9252 -52.1674 -68.8575
-63.0419 78.9352 -32.0416
-59.8116 79.8918 -30.3859
-198.886 37.69 38.4795
-195.366 39.9926 38.3628
193.191 51.8488 -22.0509
191.205 51.614 -24.577
-16.5987 73.9006 -47.4233
-15.8395 72.0613 -50.2041
-160.694 -8.66587 67.1373
-158.236 -5.1347 68.2067
-159.174 -12.1805 67.035
-155.578 -13.9394 67.7224
-181.214 -39.3656 -46.6251
-187.065 -34.8922 -47.3528
234.201 -8.19786 31.0077
231.367 -8.83935 33.3482
-185.721 -37.8037 -45.7379
-220.423 -36.3318 -21.8076
-223.2 -33.1946 -23.2996
-73.4084 69.9967 46.7408
-199.229 43.3871 -31.6548
-202.392 40.5316 -32.9564
-78.2695 72.2314 42.1497
-74.3375 72.1646 43.1245
-199.862 -47.1002 -25.2011
-196.405 -49.1625 -24.5824
-156.236 -38.5564 57.1744
-155.21 -34.5984 59.9799
-162.869 56.2881 -36.4422
-159.711 58.1139 -35.2685
245.94 -16.0776 8.9525
246.756 -13.0532 10.9097
-202.182 25.1298 -45.9109
246.469 -16.6405 5.4595
-222.675 -40.729 -3.81051
-219.564 -42.6762 -4.53528
-225.904 36.4602 -12.9114
-224.076 36.2212 -16.8751
-228.9 -34.8683 10.6506
-231.376 -33.577 7.89251
-225.472 -37.7617 9.69427
119.521 74.8314 19.8826
-172.162 -51.1028 -38.7774
115.324 75.648 19.8271
47.9289 12.2043 -85.5208
51.5142 10.7959 -85.455
-180.218 -22.1671 57.2386
-179.906 52.3355 -32.2864
-165.44 0.853084 66.2746
-168.563 2.83269 65.2481
-181.016 -17.4086 58.5602
36.4513 -59.7496 63.3349
37.786 -57.2025 65.5521
-159.984 -59.9391 -31.902
-182.765 -21.7963 -56.3858
-184.306 -18.0273 -57.0982
-11.9199 15.2965 -86.5599
-188.59 -54.9976 19.1024
-192.466 -53.1209 19.6708
-145.91 9.35525 -71.0631
-143.716 12.1667 -71.1846
-174.322 52.4499 35.6733
-173.397 50.7411 38.5785
-187.151 39.7441 -43.3154
-231.488 33.5041 -7.79805
-229.083 35.9773 -4.95748
-234.896 30.8771 -5.94647
241.404 7.72143 23.4447
239.892 10.8375 24.1019
240.609 13.4025 21.8297
-138.877 -61.8293 -39.4948
-138.123 -60.1612 -42.2956
-141.493 -58.2474 -43.5905
-200.351 -41.1627 -33.6928
-218.712 20.121 -38.5055
-52.5954 9.19663 85.5614
-56.679 -81.1825 27.5699
-60.1936 -81.4602 25.7804
-152.577 56.1763 41.6902
-153.295 58.0849 38.6409
-189.409 -9.89143 -57.0426
-186.061 -8.87581 -58.5394
64.9161 -8.69362 84.5724
67.8931 -7.04812 84.4392
-196.834 -37.2176 40.1925
-200.414 -34.6079 40.358
-180.667 -48.2449 -37.6856
-174.531 -52.0915 -36.0708
-215.618 -38.5088 23.8567
-218.655 -36.4146 23.7614
-178.254 -50.9813 -35.4225
-121.37 48.0462 -60.2666
-70.6067 60.1082 59.3351
26.871 -68.2947 54.694
24.8053 -66.5829 56.8804
-87.1727 -8.54753 -82.101
-83.9954 -6.23255 -82.7126
-27.6873 86.2004 -14.8203
-31.7551 85.7715 -16.2418
-74.4646 60.5515 58.2978
-117.435 49.1158 -60.359
67.0682 -10.9483 -84.1037
63.3181 -11.5571 -84.3776
-122.199 44.8387 -62.4923
-75.5163 64.5692 -53.6342
-79.0959 64.6579 -52.8906
-210.937 -46.4388 -11.8314
-207.911 -47.277 -14.7164
-70.3874 -66.9037 51.5881
-81.8835 62.1587 -55.3119
180.999 57.5744 -20.452
187.788 54.7447 -20.7262
-57.9991 -57.7611 -63.2125
-60.2561 -59.9449 -60.8776
185.024 56.508 -18.962
-52.1847 5.07168 85.9353
170.803 -60.9398 -21.4147
166.658 -61.8361 -22.7994
-242.161 -11.2298 20.9365
-241.443 -7.71381 23.3976
231.622 25.8614 -22.5151
229.371 25.181 -25.86
225.984 27.6882 -26.9256
-235.385 -18.968 -24.5117
-234.848 -16.6286 -26.7392
-226.06 27.1717 -27.3705
-222.943 28.4659 -29.1282
-220.762 31.3815 -28.1502
-250.634 -7.29228 -0.178828
-176.021 45.3193 43.5527
58.5585 51.3633 -68.4542
59.6727 48.537 -70.3719
128.079 68.3821 32.5502
131.575 68.3032 30.9702
-176.893 47.635 40.5453
-180.999 46.7615 39.3253
18.7045 -86.4177 15.2693
142.02 69.3638 -21.5242
141.071 68.398 -25.0839
23.2384 -86.1703 15.8922
181.098 -44.0243 42.3153
25.6365 -86.6619 12.3796
-189.021 21.6573 -53.8576
-189.443 17.9109 -55.0395
-212.327 -45.0139 14.08
-120.839 -46.997 -61.2171
-24.3219 -37.266 79.2643
52.2772 18.5918 -84.0461
55.793 16.8019 -84.1462
-25.2947 -41.1156 77.2992
-119.139 -6.50705 -77.226
-115.758 -7.72128 -77.7421
-200.041 16.4889 50.7238
-215.149 -43.2636 14.321
-153.386 33.1128 61.3766
-156.805 31.4103 61.2135
-157.699 28.266 62.4525
-79.9685 -83.4308 0.602694
-62.2221 73.5432 -43.144
-61.7164 71.4785 -46.5671
-79.8043 -83.3553 -4.02139
-209.642 -18.6795 44.881
-58.8228 72.1304 46.0171
-205.671 -19.6707 46.6712
-191.283 -46.3877 33.3552
-190.153 -45.0071 35.9378
-195.122 47.3345 29.0208
-192.216 -42.6375 37.4516
-97.6096 19.9759 78.6034
-93.9944 21.1077 78.8467
-195.846 -41.8706 35.9857
-247.68 -8.81011 12.4838
188.064 -42.0214 40.5964
184.929 -44.2656 39.9696
-126.984 75.5478 7.89603
-123.302 76.0988 9.57214
48.8008 1.74819 86.3098
130.441 15.6038 -73.6028
-179.643 46.5495 -40.3252
198.594 13.1825 52.3606
200.489 9.43633 52.2852
113.299 74.9012 23.7112
109.551 75.3632 24.3938
149.535 63.7495 -30.698
145.701 65.3581 -29.5509
-166.877 -45.6672 -47.4244
129.831 19.3672 -72.8368
-209.79 43.7119 -21.0923
-206.929 46.1357 -19.3146
126.456 20.2198 -73.3305
-61.8726 -0.191188 85.2952
-59.1337 2.71229 85.4899
[...]
POINT_DATA 10490
VECTORS F double
1.39991e-08 3.04659e-08 6.79595e-09
1.21191e-07 8.60997e-08 -4.01183e-08
1.45705e-07 7.03902e-07 3.31141e-07
5.61488e-08 -7.50156e-09 -2.56464e-08
2.79046e-07 2.45223e-07 -3.73757e-09
1.74374e-07 1.86232e-07 -5.02403e-09
8.16208e-08 2.45652e-08 -7.02681e-08
-1.85251e-06 2.41609e-06 1.21712e-07
8.97849e-07 6.72255e-07 1.29092e-07
9.64412e-07 5.89856e-07 -2.45082e-08
1.16941e-08 7.07285e-08 -3.91091e-08
1.02105e-08 5.50355e-08 -1.83178e-08
1.03447e-07 3.3521e-07 1.71824e-07
-2.25714e-06 3.86473e-06 1.20949e-07
1.4107e-07 1.2467e-07 7.18783e-09
3.30366e-06 7.17303e-07 -8.06882e-07
4.21129e-06 8.10687e-07 -1.61215e-06
-1.20636e-08 2.28103e-08 1.19434e-08
-1.41469e-08 2.21226e-08 1.39201e-08
-2.7728e-05 8.69058e-06 1.06822e-05
-2.77895e-05 5.72005e-06 5.61074e-06
-3.26498e-06 1.99889e-06 -2.82463e-07
-2.97706e-06 1.51863e-06 -2.33906e-07
3.07907e-08 2.09997e-07 -1.81994e-07
5.70306e-08 2.37279e-07 -2.18714e-07
1.67674e-08 1.63872e-07 9.77084e-08
2.16432e-09 1.40097e-07 8.60986e-08
-4.48644e-08 1.91279e-07 2.45821e-07
-1.87345e-07 1.48702e-07 1.5544e-07
2.46513e-07 2.04226e-07 -1.87597e-07
5.3631e-07 2.44311e-07 1.07224e-07
3.62106e-07 2.66584e-07 -7.42275e-08
1.65826e-07 2.86098e-06 8.01809e-07
-1.94989e-07 1.66723e-06 4.68224e-07
-1.99047e-06 2.98698e-06 -2.24169e-08
1.50831e-08 2.8113e-08 5.92733e-08
7.43898e-05 1.1856e-05 2.25357e-05
7.99813e-05 1.3692e-05 2.68202e-05
3.99656e-08 3.03411e-10 -4.97591e-08
3.46397e-08 -2.82391e-09 -2.21974e-08
6.17038e-07 3.36436e-07 1.18671e-08
2.75591e-08 2.86686e-08 6.19585e-08
2.30239e-07 2.75538e-06 5.15281e-07
-1.61177e-06 3.77515e-06 -3.52823e-07
-2.40263e-08 1.42494e-08 -1.14386e-08
-4.0581e-08 3.64624e-08 1.61031e-08
1.23612e-06 8.42052e-07 -4.92961e-08
1.12366e-06 1.43094e-06 2.07735e-07
-4.90902e-08 9.96509e-08 -6.59586e-08
-4.25572e-08 1.11962e-07 -7.90448e-08
5.15022e-08 1.39677e-07 -5.24423e-08
6.70381e-08 1.48346e-07 -4.91607e-08
9.28749e-07 2.20586e-06 6.51252e-07
1.03728e-06 2.14604e-06 7.56824e-07
-3.8672e-08 9.47037e-08 1.52297e-09
-2.71214e-08 7.15626e-08 5.08807e-09
5.86742e-08 9.4651e-08 1.01701e-07
1.76236e-07 3.51509e-08 -6.63903e-08
-2.01496e-08 1.31983e-08 -1.93049e-08
-1.91121e-08 8.0566e-09 -1.77575e-08
-2.50988e-06 3.1436e-06 -2.39469e-07
-2.31564e-06 4.01814e-06 -1.73564e-07
1.40413e-08 8.47205e-08 7.11924e-08
-3.83256e-08 5.65073e-08 9.82801e-08
-1.04322e-08 1.20913e-08 1.49144e-09
9.99415e-06 5.58208e-06 2.52677e-06
-2.00728e-08 3.59516e-08 2.4581e-08
-1.64393e-07 4.78606e-06 -6.94421e-08
3.2306e-07 3.87287e-06 -1.81982e-07
-9.78918e-07 6.62829e-06 5.50784e-07
-3.18693e-06 5.34142e-06 1.13433e-07
-2.20809e-06 4.21898e-06 9.39831e-09
-1.38061e-06 2.29152e-06 -2.56409e-07
5.77104e-09 4.37107e-08 5.4914e-08
2.72707e-09 1.37523e-08 1.01046e-09
-3.7275e-09 4.78297e-09 -1.04928e-08
4.1526e-07 3.67706e-07 -2.08e-07
1.00387e-06 1.74693e-06 -2.28592e-07
5.60558e-07 5.37837e-07 -3.15603e-07
1.3543e-09 2.80638e-08 2.97747e-08
-1.03696e-08 1.13657e-08 1.14378e-08
-3.00844e-09 1.16925e-08 2.39237e-09
2.01354e-08 1.51285e-08 3.92763e-08
2.72234e-08 6.29752e-09 4.2823e-08
1.41782e-08 3.52642e-09 2.61759e-08
1.66963e-08 1.75892e-08 3.75531e-08
3.97122e-08 3.37952e-08 8.36013e-08
2.38653e-07 2.8069e-07 -7.95173e-08
4.11954e-08 2.89109e-08 7.82833e-08
-7.38943e-07 4.61327e-06 -3.73831e-07
2.10396e-06 2.57478e-06 -2.28699e-07
1.97495e-06 2.98492e-06 -4.46964e-07
-2.36266e-08 2.03011e-07 1.86497e-07
-6.75528e-08 2.97671e-07 2.64883e-07
4.43222e-06 2.56823e-06 1.37487e-06
5.00517e-06 2.25944e-06 6.78113e-07
4.56922e-07 3.26277e-07 -3.83763e-07
1.2157e-06 5.40007e-07 -2.9159e-07
2.21322e-05 1.61387e-05 1.64367e-05
1.8105e-06 2.34678e-06 3.10892e-07
1.58053e-06 1.12793e-06 7.54053e-08
2.16434e-05 1.77814e-05 1.98112e-05
-1.08782e-06 3.55465e-07 -7.89611e-08
-1.14933e-06 4.37046e-07 -1.68117e-07
4.30731e-09 1.32765e-08 3.72172e-08
4.53331e-10 1.83953e-08 4.06046e-08
9.68665e-07 5.20418e-07 8.87749e-08
9.70915e-07 6.18454e-07 -2.30756e-08
5.81651e-08 8.18775e-08 -1.8872e-08
4.03534e-05 1.76627e-05 -2.64609e-05
4.02659e-05 1.74194e-05 -2.89022e-05
3.38761e-08 8.43772e-08 1.53936e-08
4.34127e-08 -2.2337e-08 2.78261e-09
4.38193e-07 3.75081e-07 2.26705e-07
2.21541e-07 1.41865e-07 1.01584e-07
6.33331e-07 3.44399e-07 -2.63758e-07
7.59004e-07 3.62898e-07 -3.18116e-08
-4.96101e-09 1.12928e-07 -1.09579e-08
1.19327e-07 1.5566e-07 -5.87202e-08
4.0473e-07 2.18661e-06 -7.33295e-07
1.1639e-06 9.33583e-07 2.6493e-08
8.20676e-09 -2.11138e-09 -1.10788e-08
-9.9105e-10 -8.1607e-10 1.19389e-08
2.40034e-05 6.56655e-06 7.07607e-06
2.513e-05 8.0816e-06 1.05919e-05
-4.29258e-08 5.10759e-08 -1.0534e-07
-2.84505e-08 6.61425e-08 -1.29183e-07
8.69944e-07 8.90707e-06 2.1492e-06
1.27215e-07 1.53183e-07 -2.17544e-07
1.24774e-07 1.77563e-07 -2.34227e-07
4.29745e-08 1.50483e-07 1.72927e-07
8.878e-08 2.39802e-07 2.69275e-07
2.16928e-06 6.85063e-07 -3.49076e-07
-6.84562e-07 6.22673e-06 9.96034e-07
-2.18737e-06 3.99619e-06 6.63049e-07
7.58718e-07 1.51578e-07 -2.1458e-07
2.61297e-07 5.8103e-07 3.58604e-07
3.12418e-07 8.67397e-07 5.11677e-07
-6.36959e-08 8.56669e-08 -1.39368e-07
-6.22808e-08 6.26393e-08 -1.03763e-07
1.22439e-07 2.28367e-07 -1.66144e-07
2.80767e-08 1.44184e-07 -9.86692e-08
-1.78171e-05 1.79045e-05 -2.63547e-05
-2.55987e-05 1.45705e-05 -1.88698e-05
2.48035e-06 1.1091e-06 1.40382e-07
2.17674e-06 1.25803e-06 -1.60481e-08
-6.16309e-07 1.58421e-07 1.53098e-10
-1.40588e-06 3.98847e-08 4.29906e-07
-1.29158e-06 1.27875e-06 -2.05133e-07
9.28688e-07 9.75274e-07 8.3549e-08
2.77461e-07 2.74275e-07 3.76666e-08
4.55092e-05 2.54592e-05 3.71884e-05
-6.34992e-06 3.48753e-06 1.98726e-06
5.46789e-05 2.21649e-05 3.36928e-05
-2.7157e-09 8.51575e-09 -1.01801e-08
-1.79814e-09 6.65012e-09 -7.61684e-09
0.000117714 2.58628e-05 5.40754e-05
0.000104887 2.94965e-05 5.70776e-05
-7.23343e-10 -5.20235e-10 1.30611e-09
-1.28419e-09 7.3602e-10 2.74536e-09
3.75895e-07 5.35417e-07 -3.89546e-08
3.36728e-07 5.8271e-07 -1.01791e-07
3.47548e-05 2.54717e-05 -3.04198e-05
3.86386e-05 2.43376e-05 -3.08853e-05
1.88974e-07 7.53053e-08 -9.77935e-08
-4.26468e-09 -1.78569e-09 7.1625e-09
2.37739e-07 1.86618e-07 -1.91222e-07
1.52919e-08 1.24543e-07 -1.02438e-07
2.21041e-07 3.56887e-08 -8.10734e-08
2.07374e-09 1.304e-07 3.58093e-08
5.15549e-07 2.75312e-07 1.09544e-07
5.59121e-07 3.00861e-07 3.76642e-08
9.75021e-08 1.3671e-07 1.29432e-07
8.7995e-08 3.68731e-09 -5.25592e-08
2.33486e-06 3.60535e-06 -2.64541e-07
2.53756e-05 3.9241e-06 -2.20319e-06
-3.06986e-08 2.71358e-07 7.81134e-08
-6.25325e-08 3.64842e-07 1.01705e-07
2.21511e-05 3.6602e-06 -3.7351e-06
2.39884e-05 4.0156e-06 -3.97726e-06
4.64112e-08 9.06965e-08 -2.73555e-08
6.41958e-08 1.79237e-07 -3.66139e-08
6.81823e-05 3.81888e-05 7.28042e-05
1.954e-05 3.43686e-05 5.85003e-05
0.000177664 6.63671e-06 2.00309e-05
0.00016217 7.77894e-06 1.87669e-05
2.05804e-05 3.23812e-05 5.3746e-05
2.89475e-07 2.13588e-07 1.14627e-09
8.08257e-07 4.39433e-07 -1.36343e-07
1.0022e-07 1.72219e-07 -4.84833e-08
7.31849e-07 5.53241e-07 1.21698e-07
6.73182e-08 1.97231e-07 -5.80798e-08
7.94649e-08 1.66179e-07 3.84227e-09
4.05369e-07 -1.55009e-07 3.68587e-07
4.35688e-07 3.22505e-07 -2.74802e-07
4.01263e-07 4.05481e-07 -3.4139e-07
4.99289e-05 1.49196e-05 2.47277e-05
5.3777e-05 1.39164e-05 2.36297e-05
6.6535e-07 -2.18687e-08 4.42451e-07
4.98976e-07 2.8194e-07 1.71891e-08
-8.17552e-08 3.83368e-08 2.44864e-09
-1.14038e-07 6.14832e-08 2.05002e-08
5.01291e-05 4.18028e-05 6.29941e-05
2.57127e-05 3.86289e-05 5.44535e-05
7.25518e-07 4.07109e-07 2.65154e-07
8.85988e-07 3.38991e-07 2.77169e-07
2.03831e-07 1.55739e-07 8.75538e-08
3.15734e-07 3.60139e-07 1.62931e-07
9.86273e-08 9.47619e-08 -1.26938e-07
1.11372e-07 7.3609e-08 -1.08105e-07
1.63281e-09 1.07644e-08 1.33735e-09
1.20927e-09 1.05263e-08 1.76435e-09
8.52126e-08 6.04769e-08 -9.23489e-08
3.51032e-09 2.27551e-09 -8.13469e-09
-1.01892e-09 4.32259e-09 -4.96416e-09
2.64353e-05 1.25627e-05 -1.37302e-05
7.4668e-07 5.8421e-07 2.2538e-07
7.6949e-07 5.52883e-07 1.01407e-07
2.30914e-05 9.0972e-06 -1.034e-05
2.58927e-05 1.24751e-05 -1.54113e-05
4.04099e-09 1.3161e-08 -2.85219e-08
5.11051e-10 7.01341e-09 -1.45265e-08
7.03797e-08 2.62072e-07 2.00279e-07
2.02215e-07 2.43316e-07 2.04417e-07
1.53812e-06 1.04253e-06 7.68658e-07
1.90844e-06 9.35259e-07 4.83002e-07
2.06483e-09 7.42786e-09 6.39932e-09
6.94909e-10 7.94636e-09 7.58742e-09
3.14216e-07 2.24704e-07 -4.64187e-08
6.40902e-10 3.18032e-09 6.15724e-09
-2.73564e-08 1.91999e-08 -9.50752e-09
-2.07521e-08 9.51879e-09 3.34233e-08
2.94759e-07 2.25506e-07 5.39409e-09
3.79611e-07 2.95395e-07 1.69104e-08
1.26077e-08 -1.83284e-09 2.71742e-08
-1.84031e-09 1.11984e-08 4.10335e-08
2.1545e-09 -5.46727e-09 -1.51616e-08
-1.96678e-06 2.04726e-07 6.76973e-07
5.06146e-08 -1.98481e-08 -1.35465e-09
-2.04257e-06 2.56291e-07 4.76702e-07
5.54392e-07 1.58633e-06 2.64419e-07
4.77539e-07 1.08476e-06 1.72287e-07
1.12416e-07 3.09296e-07 1.63117e-07
1.44445e-06 5.01724e-07 -1.72131e-07
4.6292e-07 2.09803e-07 1.38778e-07
4.73993e-07 2.90429e-07 1.3731e-07
1.56413e-07 3.35136e-07 1.58823e-07
-3.8514e-08 1.98234e-07 1.89726e-07
-1.84472e-08 2.10069e-07 1.84613e-07
4.18197e-08 1.07978e-08 -4.59631e-08
6.81339e-08 6.21342e-08 -5.10564e-08
2.14798e-07 1.17955e-07 -1.22127e-07
4.74765e-07 8.57189e-06 1.50679e-06
7.49338e-09 9.52316e-09 3.64748e-08
2.51106e-09 8.23499e-09 2.52482e-08
1.02266e-06 7.23934e-07 -1.61772e-07
8.18792e-07 9.88506e-07 -3.34353e-08
1.60895e-06 1.00214e-06 -5.10841e-07
1.2125e-06 8.03206e-07 -3.89212e-07
1.00788e-06 9.56881e-07 3.44836e-07
3.37753e-07 2.85252e-07 -1.96497e-09
3.12642e-07 2.53706e-07 7.24176e-08
2.66755e-07 2.10793e-07 -1.95549e-07
-1.22768e-08 2.06229e-08 8.6836e-09
-8.32608e-09 2.58116e-08 -1.46176e-09
-8.73541e-09 2.52837e-08 -3.73584e-09
7.24853e-08 2.77719e-08 -7.46831e-08
1.48177e-08 5.35023e-08 -8.20261e-08
7.2977e-08 1.09004e-07 -1.74658e-07
-1.01394e-08 6.2898e-08 -6.94615e-08
1.2533e-07 1.93359e-07 1.38836e-08
3.28287e-06 5.38523e-06 -3.31769e-07
2.63665e-08 1.992e-08 6.52933e-08
1.94997e-08 1.93204e-08 6.66235e-08
1.21594e-06 3.02091e-07 1.37772e-07
3.03556e-06 1.02265e-06 -6.28571e-08
1.35859e-07 2.37781e-07 -9.64629e-08
1.81937e-07 1.40621e-07 -9.21184e-08
9.03991e-08 6.00348e-07 5.32167e-08
-6.64341e-08 9.91468e-07 8.92962e-08
2.14332e-08 7.13166e-08 7.88888e-08
1.60801e-08 7.2436e-08 7.18928e-08
2.1204e-08 2.20535e-08 -4.06782e-08
1.87769e-08 3.39746e-09 -1.60302e-08
1.60235e-08 3.12177e-09 2.27706e-08
1.80719e-08 1.17755e-08 3.84054e-08
1.52235e-08 1.6534e-08 -3.31747e-08
6.36272e-06 3.614e-06 1.31237e-06
2.30544e-05 1.66424e-05 -1.35005e-05
-3.95657e-09 2.25864e-07 2.82268e-07
-1.18399e-07 1.82979e-07 2.20512e-07
7.94701e-07 1.57353e-06 -2.67125e-07
6.749e-07 1.89973e-06 -2.27059e-07
0.000130681 8.64758e-06 2.04068e-05
0.000118738 9.94333e-06 2.4087e-05
2.13489e-05 1.45408e-05 -1.17643e-05
6.45241e-06 4.54753e-06 2.16347e-06
-9.20029e-07 7.49005e-07 -1.87325e-07
-9.594e-07 6.75738e-07 -1.80697e-07
4.2812e-06 3.57843e-06 1.54261e-06
2.04074e-05 1.46078e-05 1.40681e-05
1.85813e-05 1.19267e-05 1.11781e-05
1.50047e-09 -6.24745e-09 2.12459e-08
-2.03257e-08 1.48102e-08 -1.24231e-08
-1.35204e-07 6.64777e-08 6.36285e-08
1.74887e-05 1.18871e-05 1.01888e-05
-2.13315e-07 6.26418e-08 -5.47832e-08
-1.67661e-07 7.86721e-08 2.18165e-08
-4.47222e-07 2.8272e-07 -2.08101e-07
-2.73602e-07 1.61905e-07 -1.26269e-07
-2.08938e-07 7.92756e-08 -1.33569e-08
1.31389e-06 4.92869e-06 -1.93194e-07
1.02077e-08 5.91e-09 -6.85127e-09
1.06089e-08 7.87744e-09 -1.18707e-08
-1.2777e-08 3.119e-08 -1.36315e-09
7.8291e-09 2.17903e-08 1.70778e-08
-5.72271e-09 1.47094e-08 9.6882e-09
-1.62075e-08 2.9817e-08 1.14324e-08
-1.99818e-08 2.58575e-08 6.05867e-09
-3.05913e-08 5.33008e-08 -5.282e-09
4.27733e-08 2.65048e-09 -4.76427e-08
2.59145e-07 3.03604e-07 3.93549e-08
2.62751e-07 1.49812e-07 -9.98094e-08
1.94983e-07 1.82774e-07 1.65439e-08
-2.19984e-08 9.28707e-08 -1.26767e-08
9.37324e-07 4.23724e-07 2.28896e-08
-4.40572e-06 4.1785e-06 2.67384e-06
-3.18325e-06 4.26675e-06 2.6124e-06
-1.06139e-06 5.13895e-08 4.03355e-07
-9.27638e-07 -4.86828e-08 5.89869e-07
1.42412e-06 6.62144e-07 -1.72379e-08
1.3049e-06 2.58238e-07 4.28243e-07
-1.48853e-08 1.00336e-08 5.90184e-08
-5.44753e-07 -2.27243e-08 -5.13291e-07
-9.3429e-07 6.36823e-08 -4.69655e-07
-4.27204e-09 7.21206e-10 4.67256e-09
-1.17964e-08 6.83222e-09 1.32889e-08
-1.10149e-08 -7.51059e-10 -2.4641e-09
1.57962e-07 4.72969e-07 1.22316e-07
1.30773e-07 4.60112e-07 9.46213e-08
-2.62199e-08 2.17536e-08 2.11399e-08
3.37488e-07 2.34816e-07 -2.61832e-07
-3.14649e-08 2.76647e-07 1.28883e-07
-1.43347e-06 2.22463e-06 3.82948e-07
-1.37511e-06 2.08211e-06 3.0412e-07
-1.34875e-07 2.5482e-07 1.30136e-07
-5.94006e-08 1.00235e-06 -7.32392e-08
3.38151e-09 1.07087e-06 -1.06974e-07
3.1015e-07 5.60606e-07 -3.24862e-08
-2.52314e-08 2.6293e-08 3.30235e-08
1.54312e-06 2.3165e-06 -7.77614e-07
1.68656e-06 1.75856e-06 -3.73431e-07
-5.47185e-09 1.94398e-06 -8.81536e-07
-3.23034e-08 3.72255e-09 -9.42105e-09
3.20863e-05 1.90012e-05 2.6724e-05
2.62353e-05 1.85406e-05 2.4202e-05
8.65091e-09 -4.35526e-10 -1.20064e-08
5.01394e-09 7.58972e-08 3.44564e-08
3.62877e-05 2.02228e-05 -2.60195e-05
1.68811e-08 1.31383e-07 6.44824e-08
2.51372e-08 2.75316e-08 5.59371e-08
4.11958e-08 2.3461e-08 5.60673e-08
3.55922e-07 3.53109e-07 -2.82957e-07
2.71438e-08 2.37844e-08 4.41332e-08
2.77267e-06 5.1929e-06 -8.98159e-07
3.32728e-06 4.33263e-06 -6.74245e-07
1.40304e-08 6.56511e-08 8.57355e-08
-1.20352e-08 7.04082e-08 2.0457e-08
-2.67168e-08 1.43349e-08 2.99905e-08
-1.38741e-08 3.42117e-10 8.23829e-09
6.77063e-06 1.44128e-06 -4.58954e-07
8.46529e-06 2.09278e-06 -3.28728e-06
-2.36921e-06 2.0919e-06 1.21634e-07
-1.89286e-07 4.20421e-07 4.8059e-08
2.15548e-06 8.62696e-07 -1.79765e-07
-6.14464e-08 8.26824e-08 7.71686e-09
-2.52436e-08 9.6791e-08 -5.6172e-09
-1.96066e-06 1.65317e-07 6.24792e-07
-2.18812e-06 4.80927e-07 -2.82708e-07
-9.88467e-07 2.2944e-07 -1.13031e-07
-1.15961e-06 1.33063e-07 -4.05696e-07
-7.10841e-08 9.54031e-08 -6.12449e-08
-4.86117e-07 4.07978e-07 2.39523e-09
4.69532e-07 1.58804e-07 -2.42656e-07
4.70415e-07 1.76211e-07 -1.9613e-07
-5.09765e-07 4.21875e-07 8.70204e-09
6.63697e-07 4.53919e-06 6.91194e-08
1.57441e-06 3.96176e-06 7.639e-09
1.0702e-06 3.66207e-06 1.62281e-07
1.34818e-08 1.51654e-08 5.49466e-08
6.79126e-06 1.46103e-06 1.23326e-07
7.5311e-06 1.61019e-06 -1.06246e-06
-1.23924e-06 6.25966e-06 -1.09526e-06
1.29668e-08 -2.16325e-09 1.53286e-08
1.80513e-06 4.14706e-06 4.99519e-08
3.95709e-06 6.88819e-06 3.51913e-06
4.53503e-06 5.5978e-06 2.44734e-06
7.80637e-06 6.70795e-06 3.16338e-06
1.13631e-07 4.06128e-07 7.09857e-08
8.63073e-08 5.1599e-07 5.31042e-08
-3.30048e-07 1.50099e-06 1.73267e-07
-1.01761e-07 8.64834e-07 1.06065e-07
6.42082e-07 2.81085e-07 1.34599e-07
3.52395e-07 5.07567e-07 1.06615e-07
1.82266e-06 6.17701e-07 -2.42847e-08
2.32506e-06 9.41837e-07 2.95371e-07
-3.91638e-08 8.23535e-10 2.9804e-08
-3.33884e-08 -2.82583e-09 1.49073e-08
7.46795e-08 1.76748e-08 -7.90382e-08
5.90788e-08 7.78826e-09 -4.79945e-08
-2.20474e-08 7.24391e-08 1.09052e-07
1.57508e-08 5.91122e-08 1.15893e-07
-1.48185e-08 6.10519e-08 1.01788e-07
2.57795e-07 9.90559e-08 1.94083e-07
3.81206e-07 2.30801e-07 -5.54226e-08
5.32111e-07 2.50915e-07 1.32247e-07
2.31894e-08 7.22603e-08 -7.91248e-08
1.25355e-08 7.3602e-08 -7.53694e-08
-2.74469e-08 5.60267e-07 -3.26434e-07
4.37155e-08 3.31616e-07 -1.98811e-07
-7.00414e-07 3.16913e-06 -5.61415e-07
-1.23116e-06 2.48084e-06 -4.51494e-07
-1.36154e-08 6.06989e-08 -5.39384e-08
2.02982e-07 3.26426e-09 -4.19838e-08
-2.15763e-08 5.47693e-09 1.2454e-08
1.31642e-08 3.18249e-08 -4.94761e-08
-1.22491e-06 3.80615e-06 -1.65486e-07
-7.31035e-08 3.79049e-07 -2.81565e-07
-1.35926e-07 3.30546e-07 -2.33264e-07
1.9386e-05 2.39552e-05 2.36675e-05
1.5648e-06 7.9197e-07 1.10446e-06
7.04961e-05 6.05171e-06 6.42888e-06
7.83885e-05 6.21953e-06 -2.82307e-06
6.56581e-05 6.35347e-06 -9.48872e-06
7.59446e-05 6.01534e-06 -4.05953e-07
1.7847e-06 7.80914e-07 9.85665e-07
1.86235e-05 2.05563e-05 1.96004e-05
1.67993e-05 2.07306e-05 1.82828e-05
4.42427e-08 2.79011e-08 -7.83493e-08
-2.48455e-08 5.6069e-09 -2.81066e-08
-1.19816e-08 4.62351e-09 -5.11888e-08
4.96968e-08 1.74015e-08 -6.49036e-08
2.25398e-08 7.90289e-09 -3.16826e-08
1.34024e-07 2.33254e-07 8.18015e-08
1.0176e-07 3.41013e-07 2.00902e-07
-6.57993e-07 8.99014e-08 2.34644e-07
-1.6639e-05 7.68166e-06 -7.75144e-06
-1.77971e-05 7.63148e-06 -8.11949e-06
-8.216e-07 8.41314e-07 -2.33158e-07
2.05496e-07 1.97518e-07 -1.60277e-07
3.5102e-07 3.66878e-07 1.06507e-07
1.83853e-07 4.95006e-07 -2.63426e-07
1.73503e-07 2.10713e-07 -1.41854e-07
1.2491e-07 4.50822e-09 7.43764e-08
1.02402e-07 5.40467e-08 1.30637e-07
6.46906e-08 3.24814e-08 8.44991e-08
1.12513e-06 1.50382e-06 -1.02775e-07
1.24996e-06 1.69684e-06 -1.05702e-07
-2.37959e-05 1.89067e-05 -3.05877e-05
-1.09147e-07 2.28701e-07 4.52078e-09
3.4606e-08 6.65566e-09 2.25535e-08
-2.83443e-08 6.83592e-08 1.24342e-07
5.9837e-07 1.78969e-06 -1.90447e-07
6.33887e-07 1.34639e-06 -1.6454e-07
-6.19093e-08 1.02512e-07 -2.36007e-09
1.11687e-07 1.78088e-07 4.49411e-09
-1.22074e-07 1.83013e-07 -1.37863e-08
-1.73329e-05 1.83254e-06 3.28644e-07
3.34783e-09 1.21953e-07 -5.88482e-08
-3.89254e-09 1.03947e-07 -5.15779e-08
-1.18792e-05 6.40985e-07 -9.56933e-07
7.49078e-07 6.78687e-07 -2.29005e-07
-1.50319e-05 3.05735e-06 2.3303e-06
-1.0796e-08 9.84655e-08 2.49461e-09
1.478e-06 5.66885e-07 9.05939e-08
1.6508e-06 4.45035e-07 4.12962e-07
2.30358e-09 6.46059e-08 -3.31048e-08
-8.72689e-09 7.67393e-08 2.35341e-08
1.09257e-07 1.94477e-07 -1.15258e-07
1.74978e-08 -1.0518e-08 -1.68043e-08
1.72761e-08 8.93489e-11 -3.52434e-08
4.26327e-07 4.35698e-07 -1.10808e-07
5.2572e-07 3.67777e-07 6.6155e-08
2.46e-06 1.88929e-06 7.26502e-07
2.91871e-05 2.08502e-05 2.66072e-05
2.28619e-05 2.06777e-05 2.46625e-05
1.86342e-08 8.78941e-10 1.57038e-09
-1.54923e-08 3.30848e-10 -1.74491e-08
2.37034e-05 2.07218e-05 2.30287e-05
3.43458e-07 9.30897e-08 1.47144e-07
1.79126e-07 1.37279e-07 1.67036e-08
-2.07436e-08 5.38665e-08 -1.00692e-09
-1.03799e-07 2.06037e-07 1.85015e-07
-9.05613e-08 2.26589e-07 1.86039e-07
-3.36432e-07 3.31653e-06 2.86133e-07
-1.02619e-07 4.46454e-08 4.12918e-08
-2.36966e-08 1.20776e-07 9.54241e-08
3.71507e-06 2.8198e-05 -4.89458e-05
6.77055e-06 2.78515e-05 -4.38434e-05
-4.83659e-07 3.30068e-06 2.98456e-07
1.0347e-06 1.13864e-06 -2.1731e-07
-1.45084e-07 2.85379e-06 3.81204e-07
-2.51675e-09 -3.66144e-09 -2.13902e-08
4.39841e-07 7.86162e-07 -1.72196e-07
9.24179e-06 2.90019e-05 -2.86224e-05
4.51702e-07 6.32732e-07 -8.54736e-08
8.60144e-07 5.69442e-07 5.58247e-07
5.68278e-08 1.00257e-07 -5.03069e-08
-3.14837e-08 4.5598e-08 2.97349e-08
9.8177e-09 2.50468e-09 -4.672e-09
-4.31086e-09 3.70121e-09 -2.33791e-08
-2.04125e-05 1.73322e-05 -1.70803e-05
-2.91308e-08 6.02565e-08 9.45079e-08
1.17744e-06 4.52746e-07 -1.30545e-07
-5.8364e-09 -2.88799e-09 1.91859e-09
6.82502e-08 1.3084e-07 1.43401e-07
2.22701e-08 6.97399e-10 2.24513e-08
1.18446e-05 2.1041e-05 -1.57254e-05
2.52934e-07 9.11379e-08 -1.04047e-07
1.24455e-05 2.14427e-05 -1.78276e-05
0.000254583 -1.01607e-06 -2.40298e-05
0.000235784 1.44315e-06 -3.10821e-05
1.60739e-08 9.68371e-08 9.316e-08
0.000159859 1.75577e-05 -5.23345e-05
1.4235e-08 1.0913e-07 8.95393e-08
-5.70356e-08 7.20543e-08 1.28491e-08
-6.59719e-08 5.26268e-08 -6.83114e-09
4.29983e-08 1.50098e-07 1.27011e-07
9.73705e-07 1.008e-06 -3.19168e-07
1.46462e-08 -2.80673e-11 -9.02069e-09
3.30023e-07 2.52151e-07 -7.93246e-08
3.11381e-05 2.84013e-05 -3.12389e-05
3.31323e-07 1.79196e-07 7.33083e-08
3.35226e-07 1.45498e-07 1.29922e-07
3.39372e-07 1.71063e-07 1.1017e-07
3.19589e-05 2.04157e-05 2.81865e-05
-9.56121e-08 5.12096e-08 -1.98267e-08
-8.39762e-08 4.40874e-08 -4.94212e-08
-1.77215e-07 1.06252e-07 -1.04303e-08
-3.09331e-07 2.60156e-07 -6.81019e-08
3.54586e-05 2.36546e-05 3.24606e-05
6.83766e-06 3.92083e-06 -1.31037e-06
3.28428e-06 4.00817e-06 -1.78295e-06
3.67865e-06 4.21066e-06 -1.7417e-06
0.000168944 5.59902e-06 -2.11488e-05
0.000157321 6.38632e-06 -1.93419e-05