# vtk DataFile Version 2.0
S, Created by Mohamad Ibrahim Cheikh
ASCII
DATASET UNSTRUCTURED_GRID
POINTS 10490 double
-223.577 20.3398 -34.7911
-223.727 23.2874 -32.7661
-130.487 -29.29 69.2927
-194.382 -37.8829 -41.0235
-207.465 29.514 40.0416
-235.873 27.403 13.474
-191.272 -39.7112 -41.084
14.3572 -3.07284 87.8027
-191.045 39.2401 -41.6618
-193.384 36.9482 -42.4296
-251.146 3.2143 -3.38189
-251.006 5.46394 -0.715432
-204.324 29.3084 -42.1161
18.5442 -1.41616 87.749
-201.225 30.3668 -43.1792
-151.242 68.758 -14.6921
-148.424 69.9709 -12.2863
241.381 21.7611 -11.7083
240.377 24.3452 -8.78191
38.8373 73.0872 -47.0913
42.6879 72.3382 -47.8339
45.3461 -3.15248 -86.5004
49.2145 -1.47609 -86.2861
-145.562 -45.489 -55.5037
-142.057 -46.9128 -55.4304
-191.797 -27.36 49.917
-189.472 -30.0389 49.4617
-64.3409 -67.8308 51.3435
-66.4858 -66.0122 53.3405
-121.222 -41.674 -64.8706
-205.477 44.6136 24.1769
-208.423 41.8783 25.9192
-64.872 -22.514 81.9871
-61.2489 -23.8871 81.9397
44.2614 4.26354 86.5215
-201.398 -44.9167 27.5784
-50.0039 83.0072 -23.4025
-46.6852 82.7381 -25.1311
-109.54 -78.4117 -11.2499
-105.514 -79.2425 -10.0789
-195.48 42.6489 35.3088
-200.946 -43.0023 30.8406
-54.4202 -15.2521 84.5505
3.47664 8.37195 87.5924
226.254 36.0729 -13.2456
223.493 37.2798 -15.4577
-146.962 22.4452 -67.7936
-143.805 23.7257 -68.1854
-167.023 -43.0208 -49.7776
-163.504 -43.4753 -50.8024
-215.265 -7.15436 -44.9389
-215.165 -3.15826 -45.4533
-105.609 -17.5562 77.9121
-104.07 -21.0946 77.2854
-247.961 -12.5202 7.72455
-247.223 -12.2224 10.5724
-226.222 -18.8437 33.5165
-129.02 -40.8328 -63.5507
238.446 4.07592 -27.684
236.191 2.11826 -30.1598
30.615 -3.65191 -87.2692
26.6486 -1.89451 -87.4841
-224.96 -22.5376 32.2523
-47.6617 -75.8703 41.347
-235.553 -26.7702 15.3058
-109.924 51.3633 -60.22
-237.92 -25.2881 13.1996
-16.8509 -1.3399 -87.792
-20.0138 -3.90956 -87.6338
25.2826 7.71093 -87.214
27.2787 3.85417 -87.3959
25.3912 1.82629 -87.5313
45.9364 -6.26488 -86.2925
-242.159 -16.9736 16.6275
249.587 -5.36863 -9.4094
249.11 -2.30239 -11.881
-169.131 48.1772 43.8271
30.4839 -13.437 -86.3115
-165.501 47.9528 45.7286
-244.371 -14.4423 14.9738
243.986 6.92829 20.1946
244.544 3.56471 20.2423
-218.529 -34.2523 26.9092
-142.145 -69.4107 21.2703
-139.629 -70.7397 18.7871
-221.095 -32.0558 27.0491
-157.969 -59.799 33.3603
-205.031 32.4709 39.2801
-154.318 -61.3629 32.6043
21.3141 7.5019 87.3619
-119.008 18.5936 75.2616
-116.343 20.6918 75.2241
25.5773 -59.0269 64.6509
29.1108 -57.6531 65.699
-134.41 55.1314 -49.9268
-136.672 52.629 -51.8391
-177.08 57.928 23.4366
-176.659 59.4082 19.8445
-69.181 65.8075 -53.1734
-62.696 16.9877 -83.5115
-66.319 16.9396 -83.178
-65.6713 67.4142 -51.6847
124.432 57.7562 50.1259
120.997 58.364 50.4503
-132.441 -69.8467 26.7945
-132.815 -68.0005 30.9885
-188.836 35.1351 46.301
-185.089 37.3091 46.4523
-232.725 13.1764 -30.6506
-58.5246 75.8438 39.6531
-59.8335 77.3506 36.3673
-231.926 16.8007 -29.6012
-175.27 -46.9579 -42.1658
-178.777 -11.2193 60.8696
-181.792 -8.3716 60.2312
-195.801 53.7634 12.6386
-198.351 52.0772 14.6685
-195.137 -6.40059 -55.146
-196.107 -2.35961 -55.0457
-155.745 25.1184 64.3688
-159.428 22.5126 64.2289
-196.21 -54.5516 -7.39896
-193.182 -56.048 -5.79622
-90.3917 75.4393 -32.4435
-86.3714 75.8708 -32.7764
-39.2327 -78.966 -36.3307
-42.7333 -77.6527 -38.6068
-35.674 20.8443 -84.5796
-119.246 -59.0733 -50.1341
-116.051 -58.3849 -51.8297
-103.564 -58.9073 54.4132
-107.458 -57.2134 55.2892
-176.01 46.9282 -41.8199
26.8898 14.1792 -86.339
23.7251 15.8889 -86.1547
-175.583 44.5908 -44.511
-89.4378 -39.5746 72.1007
-93.3057 -38.4282 72.1207
-1.70894 -75.0102 -46.012
2.63013 -75.2471 -45.6182
-158.019 -33.19 -59.8778
-154.736 -36.6281 -58.9154
24.6815 73.3938 47.7782
27.1922 71.3866 50.571
-166.507 38.8452 53.2985
-168.927 36.4762 54.0348
126.628 60.268 46.3533
124.958 62.2386 44.2567
55.8884 20.286 83.3671
-158.123 12.6747 67.2475
-155.538 9.86459 68.4459
-42.6655 74.4345 -44.5044
70.7738 53.1661 -65.6058
-39.7796 76.0356 -42.0577
222.064 -27.828 -30.5327
225.276 -26.0122 -29.2254
-14.2427 80.712 -34.7093
-17.3359 79.5577 -37.1184
247.477 -7.06408 13.9945
245.671 -9.07237 16.5073
-182.882 19.8705 57.0473
-181.342 22.715 56.5856
-54.4614 69.4923 50.5142
-52.1373 71.3447 48.1781
-221.667 26.3893 -32.1218
245.288 -12.7014 14.7131
-123.33 -44.6546 -62.352
-128.466 -46.8968 -59.3647
-126.776 -44.2458 -61.7946
-219.064 -11.0496 41.7925
-206.353 49.8873 -6.47799
-208.037 48.5256 -9.51648
-173.56 -35.1352 53.1183
-196.131 -34.866 -42.6473
-56.7754 10.7461 85.0522
-98.6349 80.8078 4.7947
-149.826 -21.4603 67.3437
-153.217 -21.7033 66.3238
-104.875 79.9541 2.17967
-102.469 80.1916 5.27286
-208.258 -1.82274 -49.302
-211.7 -0.421139 -47.5065
7.46753 77.5823 -41.4506
8.26132 75.7208 -44.7438
-10.9081 86.3456 -16.5487
-15.1686 85.6975 -19.281
12.0275 75.073 -45.7201
-209.31 34.914 -34.0773
-209.404 37.4952 -31.1374
-243.666 12.2955 -17.9924
-205.974 40.108 -30.6794
-237.95 16.7353 23.0632
-240.122 13.5404 22.3945
-198.659 34.6898 41.3384
-44.0787 -51.8511 -69.4089
-47.9248 -52.167 -68.8579
-62.9921 78.95 -32.017
-59.758 79.9057 -30.3625
-198.885 37.6899 38.48
-195.365 39.9929 38.3628
193.191 51.8489 -22.0509
191.205 51.614 -24.577
-16.5481 73.9422 -47.3606
-15.8132 72.0998 -50.1498
-160.694 -8.66546 67.1376
-158.235 -5.13436 68.207
-159.174 -12.1803 67.0351
-155.578 -13.939 67.7226
-181.214 -39.3655 -46.6252
-187.065 -34.8921 -47.3529
234.201 -8.19785 31.0077
231.367 -8.83934 33.3482
-185.721 -37.8036 -45.738
-220.423 -36.3318 -21.8076
-223.2 -33.1946 -23.2996
-73.3821 70.0093 46.7271
-199.228 43.3877 -31.6546
-202.391 40.5321 -32.9563
-78.2465 72.2405 42.1393
-74.3117 72.177 43.1091
-199.862 -47.1001 -25.2011
-196.405 -49.1625 -24.5825
-156.236 -38.5561 57.1746
-155.21 -34.5981 59.9801
-162.867 56.2891 -36.4414
-159.709 58.1148 -35.268
245.94 -16.0776 8.95251
246.756 -13.0532 10.9097
-202.182 25.13 -45.911
246.469 -16.6405 5.45951
-222.675 -40.729 -3.81052
-219.564 -42.6762 -4.53524
-225.904 36.4604 -12.9114
-224.076 36.2215 -16.8751
-228.9 -34.8683 10.6507
-231.376 -33.577 7.89255
-225.472 -37.7617 9.69426
119.519 74.8316 19.8833
-172.162 -51.1028 -38.7774
115.322 75.6482 19.8276
47.9294 12.2059 -85.5206
51.5147 10.797 -85.4548
-180.218 -22.1668 57.2388
-179.904 52.336 -32.2865
-165.439 0.853294 66.2747
-168.562 2.83298 65.2483
-181.016 -17.4082 58.5603
36.4512 -59.7494 63.3351
37.786 -57.2023 65.5522
-159.983 -59.939 -31.902
-182.765 -21.7963 -56.3858
-184.306 -18.0272 -57.0983
-11.9195 15.3051 -86.5584
-188.59 -54.9976 19.1025
-192.466 -53.1209 19.6708
-145.909 9.35597 -71.0633
-143.716 12.1676 -71.1846
-174.32 52.4509 35.6728
-173.395 50.7419 38.5781
-187.15 39.745 -43.315
-231.488 33.5043 -7.79805
-229.083 35.9776 -4.95741
-234.896 30.8773 -5.94667
241.404 7.72145 23.4447
239.892 10.8375 24.1019
240.609 13.4025 21.8297
-138.877 -61.8293 -39.4949
-138.123 -60.1612 -42.2957
-141.493 -58.2473 -43.5907
-200.351 -41.1627 -33.6929
-218.712 20.1211 -38.5055
-52.5921 9.202 85.561
-56.679 -81.1825 27.5699
-60.1936 -81.4602 25.7805
-152.576 56.1766 41.6903
-153.292 58.0859 38.6408
-189.409 -9.89119 -57.0427
-186.06 -8.87567 -58.5394
64.9162 -8.69302 84.5724
67.893 -7.04713 84.4393
-196.834 -37.2175 40.1926
-200.414 -34.6078 40.3581
-180.667 -48.2449 -37.6857
-174.531 -52.0915 -36.0708
-215.618 -38.5088 23.8567
-218.655 -36.4145 23.7615
-178.254 -50.9813 -35.4226
-121.364 48.0498 -60.2653
-70.5838 60.1247 59.3216
26.871 -68.2945 54.6942
24.8052 -66.5828 56.8806
-87.1719 -8.54596 -82.1013
-83.9947 -6.23065 -82.7129
-27.5574 86.2089 -14.8002
-31.6371 85.7813 -16.218
-74.4433 60.566 58.2861
-117.428 49.1203 -60.3569
67.0673 -10.9475 -84.1038
63.3172 -11.5564 -84.3778
-122.194 44.8423 -62.4908
-75.496 64.5838 -53.6202
-79.0774 64.6698 -52.8794
-210.937 -46.4388 -11.8314
-207.911 -47.277 -14.7165
-70.3875 -66.9036 51.5882
-81.8661 62.1706 -55.3018
180.999 57.5745 -20.4521
187.788 54.7448 -20.7262
-57.9996 -57.7608 -63.2127
-60.2564 -59.9448 -60.8777
185.024 56.5081 -18.962
-52.1834 5.0766 85.9351
170.803 -60.9398 -21.4147
166.658 -61.8361 -22.7994
-242.161 -11.2298 20.9365
-241.443 -7.71378 23.3976
231.622 25.8614 -22.5151
229.371 25.1811 -25.86
225.984 27.6882 -26.9256
-235.385 -18.9679 -24.5117
-234.848 -16.6286 -26.7393
-226.059 27.172 -27.3704
-222.943 28.466 -29.1283
-220.762 31.3817 -28.1502
-250.634 -7.29219 -0.178841
-176.02 45.3198 43.5527
58.5541 51.3675 -68.4516
59.6695 48.5413 -70.3693
128.078 68.3822 32.5506
131.574 68.3032 30.9708
-176.892 47.6357 40.5453
-180.997 46.7618 39.3257
18.7045 -86.4177 15.2693
142.019 69.3638 -21.5247
141.071 68.3981 -25.0844
23.2384 -86.1703 15.8922
181.098 -44.0243 42.3153
25.6365 -86.6619 12.3796
-189.021 21.6578 -53.8574
-189.443 17.9113 -55.0394
-212.327 -45.0139 14.08
-120.839 -46.9967 -61.2174
-24.3219 -37.2657 79.2644
52.2758 18.594 -84.0458
55.7916 16.804 -84.1459
-25.2948 -41.1154 77.2994
-119.139 -6.50605 -77.2261
-115.758 -7.72021 -77.7422
-200.04 16.4895 50.7237
-215.149 -43.2635 14.321
-153.384 33.1151 61.3758
-156.803 31.4121 61.2131
-157.699 28.268 62.4517
-79.9685 -83.4308 0.602685
-62.1901 73.562 -43.1174
-61.6902 71.4969 -46.5431
-79.8043 -83.3553 -4.0214
-209.642 -18.6795 44.881
-58.7866 72.1506 45.9912
-205.671 -19.6705 46.6713
-191.283 -46.3877 33.3552
-190.153 -45.0071 35.9378
-195.122 47.3348 29.0205
-192.216 -42.6374 37.4517
-97.6068 19.9811 78.6025
-93.9911 21.112 78.846
-195.846 -41.8705 35.9858
-247.68 -8.81004 12.4838
188.064 -42.0214 40.5965
184.929 -44.2656 39.9697
-126.977 75.5493 7.89556
-123.293 76.1009 9.56885
48.7984 1.75028 86.3099
130.441 15.6042 -73.6027
-179.641 46.5504 -40.3254
198.594 13.1826 52.3606
200.489 9.43642 52.2852
113.297 74.9013 23.7118
109.548 75.3637 24.3935
149.534 63.7497 -30.6981
145.7 65.3583 -29.5513
-166.877 -45.6671 -47.4245
129.831 19.3676 -72.8368
-209.789 43.7121 -21.0926
-206.929 46.1358 -19.3148
126.455 20.2203 -73.3305
-61.872 -0.186659 85.2953
-59.1321 2.71625 85.4899
-53.8128 -1.87931 85.9414
[...]
POINT_DATA 10490
VECTORS F double
1.41299e-08 3.04861e-08 6.70486e-09
1.2097e-07 8.59492e-08 -4.00399e-08
1.45704e-07 7.02266e-07 3.3044e-07
5.6119e-08 -7.49503e-09 -2.56344e-08
2.78378e-07 2.44448e-07 -3.59152e-09
1.73805e-07 1.85657e-07 -5.07603e-09
8.15518e-08 2.45225e-08 -7.01869e-08
-1.85001e-06 2.42891e-06 1.22039e-07
8.95762e-07 6.69844e-07 1.28008e-07
9.61258e-07 5.88168e-07 -2.42064e-08
1.16643e-08 7.05268e-08 -3.90312e-08
1.01792e-08 5.48637e-08 -1.82832e-08
1.03775e-07 3.34195e-07 1.70926e-07
-2.25366e-06 3.87512e-06 1.20848e-07
1.41237e-07 1.2501e-07 7.33163e-09
3.30315e-06 7.19652e-07 -7.95079e-07
4.20829e-06 8.12263e-07 -1.59829e-06
-1.20608e-08 2.27734e-08 1.18864e-08
-1.41384e-08 2.2094e-08 1.38642e-08
-2.73274e-05 8.9702e-06 1.11628e-05
-2.74948e-05 5.80164e-06 5.76964e-06
-3.26781e-06 2.00599e-06 -2.82841e-07
-2.97989e-06 1.52623e-06 -2.34194e-07
3.08532e-08 2.09709e-07 -1.81777e-07
5.71131e-08 2.37045e-07 -2.1854e-07
1.67702e-08 1.63383e-07 9.74406e-08
2.23144e-09 1.39679e-07 8.58759e-08
-4.47327e-08 1.90906e-07 2.45346e-07
-1.86739e-07 1.48515e-07 1.55299e-07
2.46619e-07 2.04096e-07 -1.87537e-07
5.34533e-07 2.43681e-07 1.06532e-07
3.61267e-07 2.65787e-07 -7.37714e-08
1.68093e-07 2.85319e-06 7.99782e-07
-1.89315e-07 1.66942e-06 4.69345e-07
-1.99442e-06 2.99503e-06 -2.26744e-08
1.50479e-08 2.80184e-08 5.90865e-08
7.37377e-05 1.16497e-05 2.20308e-05
7.92368e-05 1.34446e-05 2.62416e-05
4.00156e-08 3.07665e-10 -4.98499e-08
3.46817e-08 -2.82159e-09 -2.22631e-08
6.15462e-07 3.35657e-07 1.17341e-08
2.74824e-08 2.85748e-08 6.17664e-08
2.27974e-07 2.75189e-06 5.14381e-07
-1.61589e-06 3.79213e-06 -3.54594e-07
-2.40661e-08 1.42702e-08 -1.14645e-08
-4.06201e-08 3.64654e-08 1.60415e-08
1.2353e-06 8.41027e-07 -4.94048e-08
1.12539e-06 1.42198e-06 2.04203e-07
-4.8918e-08 9.95121e-08 -6.5909e-08
-4.23892e-08 1.11805e-07 -7.89772e-08
5.14646e-08 1.39309e-07 -5.23603e-08
6.69501e-08 1.47965e-07 -4.90826e-08
9.25826e-07 2.19582e-06 6.48437e-07
1.03516e-06 2.13643e-06 7.53784e-07
-3.85555e-08 9.441e-08 1.5001e-09
-2.70447e-08 7.13428e-08 5.05684e-09
5.8487e-08 9.4342e-08 1.01372e-07
1.76386e-07 3.5228e-08 -6.64766e-08
-2.01581e-08 1.31703e-08 -1.93185e-08
-1.9133e-08 8.04873e-09 -1.77797e-08
-2.51046e-06 3.15062e-06 -2.39665e-07
-2.31757e-06 4.02309e-06 -1.73551e-07
1.40105e-08 8.44415e-08 7.09714e-08
-3.81749e-08 5.64192e-08 9.81384e-08
-1.03952e-08 1.20478e-08 1.48443e-09
9.91297e-06 5.55901e-06 2.52606e-06
-2.00068e-08 3.58299e-08 2.44963e-08
-1.53372e-07 4.7871e-06 -6.94563e-08
3.29723e-07 3.87929e-06 -1.82282e-07
-9.92035e-07 6.616e-06 5.49739e-07
-3.18015e-06 5.34068e-06 1.14e-07
-2.20821e-06 4.22509e-06 9.73096e-09
-1.38706e-06 2.2988e-06 -2.57293e-07
5.74282e-09 4.3572e-08 5.47218e-08
2.71063e-09 1.37002e-08 9.87144e-10
-3.72803e-09 4.75151e-09 -1.04936e-08
4.18453e-07 3.67304e-07 -2.06055e-07
1.00527e-06 1.75518e-06 -2.29777e-07
5.63421e-07 5.36916e-07 -3.13378e-07
1.34009e-09 2.79868e-08 2.96747e-08
-1.03384e-08 1.13292e-08 1.14046e-08
-3.00246e-09 1.16518e-08 2.38725e-09
2.00743e-08 1.50745e-08 3.91474e-08
2.71805e-08 6.2677e-09 4.26926e-08
1.4164e-08 3.50368e-09 2.60773e-08
1.66434e-08 1.75298e-08 3.74305e-08
3.96326e-08 3.37013e-08 8.33854e-08
2.38475e-07 2.79631e-07 -7.87586e-08
4.11157e-08 2.88278e-08 7.80802e-08
-7.59142e-07 4.62274e-06 -3.74288e-07
2.09712e-06 2.56287e-06 -2.27174e-07
1.97027e-06 2.96997e-06 -4.43864e-07
-2.33408e-08 2.03631e-07 1.87048e-07
-6.73683e-08 2.98565e-07 2.65655e-07
4.41789e-06 2.55136e-06 1.36118e-06
4.9694e-06 2.25053e-06 6.80781e-07
4.58283e-07 3.25936e-07 -3.81675e-07
1.21185e-06 5.38189e-07 -2.9037e-07
2.19859e-05 1.60144e-05 1.63173e-05
1.80059e-06 2.37475e-06 3.17566e-07
1.57119e-06 1.15933e-06 8.27311e-08
2.15249e-05 1.76191e-05 1.96327e-05
-1.08525e-06 3.51335e-07 -7.49856e-08
-1.146e-06 4.32774e-07 -1.64159e-07
4.33041e-09 1.32296e-08 3.71087e-08
4.9694e-10 1.83356e-08 4.04974e-08
9.65326e-07 5.19197e-07 8.80254e-08
9.6833e-07 6.1565e-07 -2.20963e-08
5.80628e-08 8.17127e-08 -1.88473e-08
4.00844e-05 1.74562e-05 -2.61449e-05
3.99768e-05 1.72098e-05 -2.85514e-05
3.38858e-08 8.42113e-08 1.52897e-08
4.34071e-08 -2.23049e-08 2.74872e-09
4.36864e-07 3.74113e-07 2.26045e-07
2.21037e-07 1.41805e-07 1.01389e-07
6.31412e-07 3.43356e-07 -2.62982e-07
7.56395e-07 3.61764e-07 -3.21181e-08
-4.80237e-09 1.12702e-07 -1.10003e-08
1.19116e-07 1.55323e-07 -5.8613e-08
4.05483e-07 2.17417e-06 -7.28302e-07
1.15804e-06 9.32034e-07 2.52389e-08
8.20899e-09 -2.11138e-09 -1.10844e-08
-9.6736e-10 -8.20327e-10 1.18757e-08
2.39016e-05 6.53271e-06 7.03712e-06
2.5018e-05 8.03293e-06 1.05231e-05
-4.29141e-08 5.12081e-08 -1.05628e-07
-2.841e-08 6.63071e-08 -1.29517e-07
8.53402e-07 8.86843e-06 2.14152e-06
1.2737e-07 1.53146e-07 -2.17543e-07
1.24954e-07 1.77496e-07 -2.34199e-07
4.3055e-08 1.50282e-07 1.72727e-07
8.86614e-08 2.39303e-07 2.68729e-07
2.15817e-06 6.82666e-07 -3.46013e-07
-7.00431e-07 6.21737e-06 9.94351e-07
-2.18514e-06 4.01633e-06 6.67035e-07
7.61185e-07 1.54436e-07 -2.12905e-07
2.617e-07 5.80489e-07 3.58363e-07
3.12198e-07 8.64708e-07 5.10194e-07
-6.37956e-08 8.59594e-08 -1.39844e-07
-6.23726e-08 6.28784e-08 -1.04159e-07
1.22488e-07 2.28114e-07 -1.66018e-07
2.82242e-08 1.44017e-07 -9.86123e-08
-1.62291e-05 1.82817e-05 -2.70568e-05
-2.50523e-05 1.45992e-05 -1.89592e-05
2.46922e-06 1.10462e-06 1.39352e-07
2.16784e-06 1.252e-06 -1.54217e-08
-6.15858e-07 1.55123e-07 4.29022e-09
-1.3974e-06 3.76039e-08 4.30174e-07
-1.30771e-06 1.3011e-06 -2.0927e-07
9.26157e-07 9.71706e-07 8.34767e-08
2.78488e-07 2.74529e-07 3.79139e-08
4.55046e-05 2.50965e-05 3.66333e-05
-6.35548e-06 3.50142e-06 1.99811e-06
5.46927e-05 2.1784e-05 3.30494e-05
-2.74696e-09 8.50857e-09 -1.02007e-08
-1.8261e-09 6.63558e-09 -7.63019e-09
0.000117295 2.52559e-05 5.28362e-05
0.000104624 2.88112e-05 5.577e-05
-7.23323e-10 -5.29652e-10 1.29682e-09
-1.28171e-09 7.23055e-10 2.73292e-09
3.75233e-07 5.3407e-07 -3.87509e-08
3.36983e-07 5.80916e-07 -1.00978e-07
3.45131e-05 2.52074e-05 -3.0122e-05
3.84252e-05 2.40601e-05 -3.05384e-05
1.88529e-07 7.52164e-08 -9.7491e-08
-4.25615e-09 -1.79315e-09 7.13908e-09
2.37789e-07 1.86521e-07 -1.91163e-07
1.56146e-08 1.24449e-07 -1.02449e-07
2.21096e-07 3.57249e-08 -8.11131e-08
2.14158e-09 1.29983e-07 3.57417e-08
5.13614e-07 2.74256e-07 1.08976e-07
5.57299e-07 2.99792e-07 3.71066e-08
9.72756e-08 1.36336e-07 1.29094e-07
8.79122e-08 3.67747e-09 -5.25045e-08
2.34292e-06 3.6e-06 -2.63369e-07
2.51677e-05 3.89203e-06 -2.20703e-06
-3.01671e-08 2.7083e-07 7.80879e-08
-6.19117e-08 3.6384e-07 1.0155e-07
2.19628e-05 3.62725e-06 -3.67547e-06
2.37958e-05 3.98058e-06 -3.92225e-06
4.64198e-08 9.0561e-08 -2.73548e-08
6.41217e-08 1.78787e-07 -3.65691e-08
7.13539e-05 3.80689e-05 7.28267e-05
2.15965e-05 3.45102e-05 5.88906e-05
0.000175679 6.44711e-06 1.94603e-05
0.000160384 7.57677e-06 1.82274e-05
2.25161e-05 3.23778e-05 5.38901e-05
2.89186e-07 2.13109e-07 8.75052e-10
8.05461e-07 4.37863e-07 -1.35922e-07
9.99519e-08 1.71706e-07 -4.83853e-08
7.29639e-07 5.51038e-07 1.20647e-07
6.71278e-08 1.96604e-07 -5.78673e-08
7.9218e-08 1.65661e-07 3.82929e-09
4.04359e-07 -1.53268e-07 3.66527e-07
4.36339e-07 3.2318e-07 -2.75353e-07
4.01878e-07 4.06135e-07 -3.41934e-07
4.95742e-05 1.47267e-05 2.43728e-05
5.33958e-05 1.37313e-05 2.32705e-05
6.6331e-07 -2.06857e-08 4.39995e-07
4.97992e-07 2.81388e-07 1.71478e-08
-8.20663e-08 3.84232e-08 2.31773e-09
-1.14388e-07 6.1585e-08 2.03801e-08
5.10278e-05 4.13715e-05 6.24089e-05
2.68337e-05 3.83386e-05 5.4083e-05
7.23415e-07 4.05934e-07 2.64382e-07
8.83399e-07 3.38115e-07 2.76363e-07
2.03838e-07 1.55587e-07 8.75282e-08
3.15315e-07 3.59077e-07 1.62593e-07
9.85679e-08 9.46051e-08 -1.26777e-07
1.11278e-07 7.34755e-08 -1.0796e-07
1.62085e-09 1.07264e-08 1.33778e-09
1.19513e-09 1.04909e-08 1.76534e-09
8.51697e-08 6.03617e-08 -9.22309e-08
3.52177e-09 2.26627e-09 -8.13349e-09
-9.90493e-10 4.31121e-09 -4.98145e-09
2.62095e-05 1.24858e-05 -1.36675e-05
7.45093e-07 5.82077e-07 2.23693e-07
7.67374e-07 5.50996e-07 1.0069e-07
2.292e-05 9.05606e-06 -1.03145e-05
2.56887e-05 1.23994e-05 -1.53385e-05
4.05764e-09 1.31468e-08 -2.85121e-08
5.2723e-10 7.00376e-09 -1.45237e-08
7.03288e-08 2.61341e-07 1.99767e-07
2.01753e-07 2.42674e-07 2.03899e-07
1.53914e-06 1.04029e-06 7.64696e-07
1.90902e-06 9.33026e-07 4.79042e-07
2.05062e-09 7.39338e-09 6.3774e-09
6.86387e-10 7.91118e-09 7.56191e-09
3.13679e-07 2.2436e-07 -4.63157e-08
6.32378e-10 3.15748e-09 6.1352e-09
-2.7272e-08 1.91424e-08 -9.49553e-09
-2.06861e-08 9.48964e-09 3.331e-08
2.93989e-07 2.24874e-07 5.26412e-09
3.78544e-07 2.9449e-07 1.67079e-08
1.25751e-08 -1.83925e-09 2.70636e-08
-1.83461e-09 1.11564e-08 4.08823e-08
2.15863e-09 -5.4629e-09 -1.51333e-08
-1.92456e-06 1.96092e-07 6.78361e-07
5.06027e-08 -1.98316e-08 -1.37004e-09
-1.99809e-06 2.4469e-07 4.89274e-07
5.50704e-07 1.59252e-06 2.6508e-07
4.74036e-07 1.09059e-06 1.7278e-07
1.12163e-07 3.08313e-07 1.62637e-07
1.43973e-06 5.00693e-07 -1.70564e-07
4.61988e-07 2.09869e-07 1.38491e-07
4.72989e-07 2.90298e-07 1.36996e-07
1.56196e-07 3.34111e-07 1.58433e-07
-3.84669e-08 1.98896e-07 1.90346e-07
-1.84494e-08 2.10817e-07 1.85265e-07
4.18467e-08 1.07821e-08 -4.59512e-08
6.81425e-08 6.20502e-08 -5.10278e-08
2.14479e-07 1.17752e-07 -1.21937e-07
4.58544e-07 8.55769e-06 1.50542e-06
7.47917e-09 9.48822e-09 3.6356e-08
2.51106e-09 8.20429e-09 2.51637e-08
1.02089e-06 7.23318e-07 -1.614e-07
8.20727e-07 9.84842e-07 -3.4525e-08
1.60035e-06 9.96074e-07 -5.07111e-07
1.20882e-06 7.99262e-07 -3.86076e-07
1.00545e-06 9.53267e-07 3.42832e-07
3.36673e-07 2.84318e-07 -2.03417e-09
3.11698e-07 2.52917e-07 7.20535e-08
2.6593e-07 2.1016e-07 -1.94831e-07
-1.22426e-08 2.05595e-08 8.66116e-09
-8.30625e-09 2.57348e-08 -1.44897e-09
-8.71553e-09 2.52137e-08 -3.71844e-09
7.25372e-08 2.77563e-08 -7.46805e-08
1.49484e-08 5.34593e-08 -8.20169e-08
7.30367e-08 1.08899e-07 -1.74539e-07
-1.00568e-08 6.27622e-08 -6.93563e-08
1.25114e-07 1.92819e-07 1.37515e-08
3.28335e-06 5.36282e-06 -3.29678e-07
2.63743e-08 1.98661e-08 6.51349e-08
1.95329e-08 1.92522e-08 6.64155e-08
1.22238e-06 3.07452e-07 1.33424e-07
3.01849e-06 1.01892e-06 -6.55954e-08
1.35722e-07 2.37271e-07 -9.63179e-08
1.81687e-07 1.40405e-07 -9.19879e-08
8.64306e-08 6.04818e-07 5.40447e-08
-6.97421e-08 9.9513e-07 8.99157e-08
2.13916e-08 7.11019e-08 7.86644e-08
1.60524e-08 7.22223e-08 7.1692e-08
2.12296e-08 2.20158e-08 -4.06448e-08
1.88028e-08 3.38561e-09 -1.60288e-08
1.59845e-08 3.10312e-09 2.2696e-08
1.80235e-08 1.17288e-08 3.82787e-08
1.52525e-08 1.65013e-08 -3.31462e-08
6.31775e-06 3.59743e-06 1.31058e-06
2.28907e-05 1.65277e-05 -1.34169e-05
-3.85115e-09 2.26191e-07 2.82667e-07
-1.18366e-07 1.83304e-07 2.2089e-07
7.94586e-07 1.57307e-06 -2.67031e-07
6.738e-07 1.90063e-06 -2.26944e-07
0.000129134 8.45667e-06 1.98205e-05
0.000117344 9.72973e-06 2.34371e-05
2.12002e-05 1.44437e-05 -1.16936e-05
6.41055e-06 4.51411e-06 2.14674e-06
-9.23439e-07 7.51488e-07 -1.87973e-07
-9.63406e-07 6.80499e-07 -1.81711e-07
4.25672e-06 3.56172e-06 1.53677e-06
2.02649e-05 1.44958e-05 1.39664e-05
1.84575e-05 1.18417e-05 1.11027e-05
1.52707e-09 -6.2382e-09 2.11524e-08
-2.02434e-08 1.47697e-08 -1.24332e-08
-1.34724e-07 6.64588e-08 6.36835e-08
1.73735e-05 1.18006e-05 1.01175e-05
-2.13851e-07 6.26161e-08 -5.54367e-08
-1.68133e-07 7.87164e-08 2.14095e-08
-4.47297e-07 2.83188e-07 -2.08517e-07
-2.7352e-07 1.62249e-07 -1.26617e-07
-2.09492e-07 7.93331e-08 -1.38479e-08
1.32524e-06 4.90844e-06 -1.91439e-07
1.02247e-08 5.93128e-09 -6.89513e-09
1.06292e-08 7.90874e-09 -1.19377e-08
-1.27343e-08 3.10883e-08 -1.35727e-09
7.79749e-09 2.17321e-08 1.7016e-08
-5.7625e-09 1.4697e-08 9.62369e-09
-1.6253e-08 2.97923e-08 1.13614e-08
-2.0032e-08 2.58405e-08 5.98863e-09
-3.04723e-08 5.31537e-08 -5.30625e-09
4.26866e-08 2.64725e-09 -4.75471e-08
2.58449e-07 3.02679e-07 3.91455e-08
2.62061e-07 1.49486e-07 -9.94818e-08
1.94687e-07 1.82301e-07 1.63021e-08
-2.19311e-08 9.25862e-08 -1.26622e-08
9.35423e-07 4.2197e-07 2.37673e-08
-4.4169e-06 4.19407e-06 2.68475e-06
-3.19503e-06 4.28313e-06 2.62285e-06
-1.05137e-06 4.73423e-08 4.07027e-07
-9.20206e-07 -5.04814e-08 5.89958e-07
1.41884e-06 6.58916e-07 -1.62823e-08
1.30028e-06 2.58657e-07 4.25127e-07
-1.48568e-08 1.00308e-08 5.90015e-08
-5.42545e-07 -2.42784e-08 -5.16504e-07
-9.31141e-07 6.18697e-08 -4.72419e-07
-4.23114e-09 7.09843e-10 4.6088e-09
-1.18135e-08 6.82084e-09 1.32861e-08
-1.10049e-08 -7.63818e-10 -2.55531e-09
1.57567e-07 4.71537e-07 1.21915e-07
1.30881e-07 4.58683e-07 9.41147e-08
-2.61352e-08 2.16784e-08 2.1056e-08
3.37449e-07 2.34661e-07 -2.61701e-07
-2.92732e-08 2.78061e-07 1.29629e-07
-1.42905e-06 2.22941e-06 3.84406e-07
-1.37121e-06 2.08528e-06 3.05123e-07
-1.33331e-07 2.56238e-07 1.30951e-07
-5.76944e-08 1.00065e-06 -7.3404e-08
5.24597e-09 1.06965e-06 -1.07178e-07
3.0935e-07 5.58431e-07 -3.21725e-08
-2.51518e-08 2.62045e-08 3.29033e-08
1.53917e-06 2.2998e-06 -7.69917e-07
1.67844e-06 1.75143e-06 -3.72375e-07
1.30277e-09 1.93559e-06 -8.75715e-07
-3.22317e-08 3.71312e-09 -9.56735e-09
3.19388e-05 1.87722e-05 2.6387e-05
2.61724e-05 1.83233e-05 2.39001e-05
8.67075e-09 -4.29901e-10 -1.21547e-08
5.05791e-09 7.56841e-08 3.43935e-08
3.60394e-05 2.00244e-05 -2.57741e-05
1.6901e-08 1.31023e-07 6.43411e-08
2.50779e-08 2.74465e-08 5.5778e-08
4.10765e-08 2.33985e-08 5.59127e-08
3.5556e-07 3.52088e-07 -2.81596e-07
2.70774e-08 2.37268e-08 4.40267e-08
2.76835e-06 5.15289e-06 -8.89009e-07
3.30778e-06 4.34166e-06 -6.7977e-07
1.40048e-08 6.54433e-08 8.54769e-08
-1.20124e-08 7.01998e-08 2.03687e-08
-2.67215e-08 1.43178e-08 2.9976e-08
-1.38911e-08 3.30045e-10 8.2339e-09
6.75825e-06 1.43952e-06 -4.67486e-07
8.4421e-06 2.08702e-06 -3.28059e-06
-2.37131e-06 2.1028e-06 1.21499e-07
-1.90902e-07 4.22959e-07 4.82494e-08
2.14394e-06 8.58256e-07 -1.78564e-07
-6.15615e-08 8.26614e-08 7.77511e-09
-2.53503e-08 9.67557e-08 -5.56178e-09
-1.9238e-06 1.5692e-07 6.29735e-07
-2.1437e-06 4.62554e-07 -2.50388e-07
-9.88324e-07 2.28005e-07 -1.1592e-07
-1.1592e-06 1.31446e-07 -4.09013e-07
-7.09318e-08 9.52756e-08 -6.11866e-08
-4.89532e-07 4.10422e-07 2.30284e-09
4.68425e-07 1.58519e-07 -2.41893e-07
4.69459e-07 1.75878e-07 -1.95666e-07
-5.13288e-07 4.24559e-07 8.70061e-09
6.66335e-07 4.52087e-06 6.90711e-08
1.56813e-06 3.95139e-06 7.24948e-09
1.06664e-06 3.6597e-06 1.61798e-07
1.3447e-08 1.51089e-08 5.47627e-08
6.76363e-06 1.45528e-06 1.1388e-07
7.50001e-06 1.60375e-06 -1.06525e-06
-1.21387e-06 6.26248e-06 -1.09549e-06
1.29305e-08 -2.16183e-09 1.52757e-08
1.80033e-06 4.14393e-06 4.94374e-08
3.9762e-06 6.84317e-06 3.48973e-06
4.5319e-06 5.58583e-06 2.44159e-06
7.76387e-06 6.66537e-06 3.14304e-06
1.13821e-07 4.05202e-07 7.09758e-08
8.68247e-08 5.14342e-07 5.31933e-08
-3.31994e-07 1.50509e-06 1.73826e-07
-1.04063e-07 8.69456e-07 1.06804e-07
6.40323e-07 2.80418e-07 1.33644e-07
3.52007e-07 5.05997e-07 1.06511e-07
1.81936e-06 6.16624e-07 -2.41233e-08
2.31651e-06 9.36913e-07 2.91398e-07
-3.92234e-08 8.10711e-10 2.98055e-08
-3.34396e-08 -2.84574e-09 1.48797e-08
7.47213e-08 1.7672e-08 -7.90551e-08
5.91214e-08 7.78541e-09 -4.80123e-08
-2.19806e-08 7.23268e-08 1.0889e-07
1.57714e-08 5.89845e-08 1.15656e-07
-1.47097e-08 6.09354e-08 1.01613e-07
2.57348e-07 9.89932e-08 1.9333e-07
3.80291e-07 2.30206e-07 -5.5156e-08
5.30459e-07 2.50225e-07 1.31459e-07
2.32333e-08 7.21345e-08 -7.90283e-08
1.2578e-08 7.34465e-08 -7.5258e-08
-2.65965e-08 5.60012e-07 -3.26424e-07
4.44699e-08 3.31815e-07 -1.99046e-07
-7.13555e-07 3.18286e-06 -5.63417e-07
-1.24177e-06 2.50189e-06 -4.55394e-07
-1.35295e-08 6.05657e-08 -5.38616e-08
2.03132e-07 3.82504e-09 -4.2156e-08
-2.15945e-08 5.46723e-09 1.2459e-08
1.3183e-08 3.17595e-08 -4.94102e-08
-1.20774e-06 3.81175e-06 -1.65688e-07
-7.29094e-08 3.80019e-07 -2.82289e-07
-1.35829e-07 3.31501e-07 -2.33947e-07
1.93698e-05 2.37219e-05 2.34384e-05
1.56104e-06 7.8888e-07 1.09655e-06
6.98916e-05 5.99196e-06 6.37986e-06
7.7663e-05 6.15251e-06 -2.7408e-06
6.51447e-05 6.28574e-06 -9.2964e-06
7.5243e-05 5.94912e-06 -3.70394e-07
1.78245e-06 7.78234e-07 9.7519e-07
1.86089e-05 2.03882e-05 1.94385e-05
1.6749e-05 2.05779e-05 1.81526e-05
4.41887e-08 2.78415e-08 -7.82167e-08
-2.48114e-08 5.61259e-09 -2.82283e-08
-1.19575e-08 4.62632e-09 -5.12849e-08
4.96336e-08 1.73717e-08 -6.48099e-08
2.25399e-08 7.89236e-09 -3.16678e-08
1.33919e-07 2.32683e-07 8.14552e-08
1.01919e-07 3.39854e-07 1.99902e-07
-6.56208e-07 8.94131e-08 2.34569e-07
-1.65434e-05 7.5931e-06 -7.65479e-06
-1.76809e-05 7.55545e-06 -8.03559e-06
-8.20345e-07 8.45078e-07 -2.34181e-07
2.05362e-07 1.97365e-07 -1.60159e-07
3.50077e-07 3.65634e-07 1.06249e-07
1.83892e-07 4.94208e-07 -2.63104e-07
1.73584e-07 2.10622e-07 -1.4184e-07
1.24574e-07 4.50018e-09 7.41823e-08
1.02134e-07 5.38993e-08 1.30286e-07
6.45386e-08 3.23947e-08 8.42846e-08
1.12434e-06 1.50273e-06 -1.02674e-07
1.24925e-06 1.69554e-06 -1.05609e-07
-2.28997e-05 1.93971e-05 -3.15237e-05
-1.09917e-07 2.29758e-07 4.45592e-09
3.45785e-08 6.66279e-09 2.25573e-08
-2.8212e-08 6.8196e-08 1.24065e-07
5.98092e-07 1.7867e-06 -1.90165e-07
6.34095e-07 1.34824e-06 -1.64678e-07
-6.23989e-08 1.02956e-07 -2.44818e-09
1.11372e-07 1.77548e-07 4.44177e-09
-1.22882e-07 1.83849e-07 -1.39327e-08
-1.72874e-05 1.90617e-06 4.52218e-07
3.30402e-09 1.22697e-07 -5.92222e-08
-3.99089e-09 1.04596e-07 -5.19159e-08
-1.19465e-05 7.02923e-07 -8.69489e-07
7.46887e-07 6.7606e-07 -2.27727e-07
-1.50515e-05 3.08073e-06 2.36341e-06
-1.07619e-08 9.81671e-08 2.45779e-09
1.4703e-06 5.65153e-07 8.82848e-08
1.64246e-06 4.43699e-07 4.0962e-07
2.30074e-09 6.44189e-08 -3.30311e-08
-8.70984e-09 7.64959e-08 2.34401e-08
1.08926e-07 1.93864e-07 -1.14872e-07
1.74666e-08 -1.04908e-08 -1.6791e-08
1.72476e-08 8.72197e-11 -3.51787e-08
4.25137e-07 4.34056e-07 -1.10087e-07
5.23884e-07 3.66504e-07 6.59089e-08
2.45247e-06 1.88066e-06 7.21772e-07
2.90965e-05 2.06142e-05 2.62962e-05
2.28138e-05 2.04465e-05 2.43791e-05
1.87127e-08 8.84657e-10 1.43883e-09
-1.54895e-08 3.43165e-10 -1.7624e-08
2.36896e-05 2.05173e-05 2.27924e-05
3.42421e-07 9.30043e-08 1.46588e-07
1.78956e-07 1.36999e-07 1.6783e-08
-2.0681e-08 5.37054e-08 -1.00235e-09
-1.03535e-07 2.06479e-07 1.85398e-07
-9.01103e-08 2.27123e-07 1.86461e-07
-3.27768e-07 3.31204e-06 2.86189e-07
-1.03097e-07 4.49197e-08 4.15106e-08
-2.35412e-08 1.20453e-07 9.52044e-08
6.04887e-06 2.8202e-05 -4.9114e-05
9.19869e-06 2.78595e-05 -4.39842e-05
-4.74818e-07 3.29506e-06 2.9842e-07
1.0335e-06 1.13654e-06 -2.16742e-07
-1.39824e-07 2.85105e-06 3.81143e-07
-2.50537e-09 -3.61378e-09 -2.13356e-08
4.46629e-07 7.87799e-07 -1.71062e-07
9.5029e-06 2.8712e-05 -2.83437e-05
4.54989e-07 6.38389e-07 -8.64411e-08
8.58056e-07 5.67271e-07 5.54606e-07
5.66806e-08 9.99681e-08 -5.02032e-08
-3.13903e-08 4.54596e-08 2.96295e-08
9.86162e-09 2.52458e-09 -4.74556e-09
-4.32513e-09 3.72681e-09 -2.35291e-08
-2.0433e-05 1.72422e-05 -1.69976e-05
-2.90456e-08 6.00722e-08 9.41879e-08
1.17322e-06 4.51391e-07 -1.29188e-07
-5.85629e-09 -2.89938e-09 1.90174e-09
6.81042e-08 1.30507e-07 1.43046e-07
2.22073e-08 6.9248e-10 2.23823e-08
1.17703e-05 2.08749e-05 -1.56101e-05
2.5287e-07 9.14271e-08 -1.04186e-07
1.24467e-05 2.12623e-05 -1.76812e-05
0.000251029 -1.14476e-06 -2.30618e-05
0.000232686 1.26671e-06 -3.00516e-05
1.60512e-08 9.65521e-08 9.28992e-08
0.000159022 1.68315e-05 -5.03311e-05
1.42293e-08 1.0881e-07 8.92957e-08
-5.74078e-08 7.217e-08 1.27244e-08
-6.63079e-08 5.27428e-08 -6.94732e-09
4.28889e-08 1.49646e-07 1.26638e-07
9.71549e-07 1.00596e-06 -3.18464e-07
1.46784e-08 -3.58905e-11 -9.02891e-09
3.2921e-07 2.5135e-07 -7.88136e-08
3.09371e-05 2.80647e-05 -3.08842e-05
3.30441e-07 1.78726e-07 7.30984e-08
3.34339e-07 1.45246e-07 1.29415e-07
3.38295e-07 1.70594e-07 1.09709e-07
3.19556e-05 2.01286e-05 2.77536e-05
-9.56945e-08 5.12402e-08 -1.99319e-08
-8.40558e-08 4.4135e-08 -4.9419e-08
-1.77653e-07 1.06212e-07 -1.02244e-08
-3.09707e-07 2.60008e-07 -6.78565e-08
3.54182e-05 2.33361e-05 3.20031e-05
6.81013e-06 3.9318e-06 -1.32363e-06
3.29912e-06 3.9843e-06 -1.76543e-06
3.69871e-06 4.19892e-06 -1.73116e-06
0.000166777 5.45933e-06 -2.06632e-05
0.000155229 6.24621e-06 -1.89491e-05