# vtk DataFile Version 2.0
S, Created by Mohamad Ibrahim Cheikh
ASCII
DATASET UNSTRUCTURED_GRID
POINTS 10490 double
-223.577 20.3383 -34.7914
-223.732 23.2834 -32.7643
-130.493 -29.3206 69.2784
-194.385 -37.8826 -41.0223
-207.477 29.5027 40.042
-235.881 27.3946 13.4743
-191.276 -39.7124 -41.0808
14.4391 -3.17151 87.7976
-191.087 39.2081 -41.6683
-193.43 36.9206 -42.428
-251.147 3.21112 -3.38011
-251.007 5.46142 -0.714557
-204.328 29.2928 -42.1243
18.6453 -1.58292 87.7436
-201.232 30.3616 -43.1792
-151.389 68.7297 -14.6379
-148.616 69.9374 -12.194
241.381 21.7602 -11.7088
240.378 24.3442 -8.78249
40.1454 72.8154 -47.3772
43.961 72.1158 -48.0281
45.49 -3.23607 -86.488
49.3454 -1.53749 -86.2758
-145.563 -45.4985 -55.4955
-142.059 -46.9235 -55.4206
-191.797 -27.3672 49.9128
-189.472 -30.045 49.458
-64.339 -67.8389 51.3331
-66.4777 -66.0185 53.3339
-121.233 -41.6832 -64.8622
-205.502 44.6022 24.172
-208.44 41.8659 25.9231
-64.8776 -22.6428 81.9511
-61.2362 -23.9555 81.9209
44.3485 4.13247 86.5224
-201.399 -44.918 27.5758
-54.327 82.1244 -25.2632
-51.3913 81.7118 -27.2733
-109.542 -78.4118 -11.2477
-105.515 -79.2424 -10.0779
-195.508 42.6334 35.3084
-200.947 -43.0035 30.838
-54.4338 -15.3735 84.5274
3.54313 8.21387 87.6071
226.255 36.0722 -13.2452
223.494 37.2783 -15.4584
-147.019 22.4064 -67.7913
-143.853 23.6504 -68.199
-167.021 -43.0253 -49.7747
-163.502 -43.4804 -50.7988
-215.267 -7.16073 -44.9366
-215.168 -3.16503 -45.4511
-105.651 -17.6586 77.8819
-104.115 -21.1935 77.251
-247.959 -12.5243 7.7245
-247.222 -12.2256 10.5722
-226.225 -18.8478 33.5121
-129.028 -40.8344 -63.5477
238.447 4.07537 -27.6832
236.191 2.11792 -30.159
30.7272 -3.78705 -87.2586
26.7509 -2.07038 -87.4763
-224.961 -22.5413 32.2493
-47.66 -75.8727 41.3429
-235.553 -26.7708 15.3058
-110.513 51.0905 -60.3199
-237.919 -25.2897 13.1985
-16.8322 -1.55743 -87.7889
-20.0229 -4.07854 -87.6258
25.3134 7.39883 -87.2399
27.4299 3.61275 -87.4004
25.491 1.64282 -87.5314
45.9925 -6.36132 -86.2818
-242.159 -16.9755 16.6251
249.587 -5.3692 -9.40944
249.111 -2.30259 -11.8806
-169.146 48.16 43.8389
30.4403 -13.5083 -86.3023
-165.522 47.928 45.745
-244.371 -14.4435 14.9725
243.986 6.92782 20.1941
244.544 3.56423 20.2422
-218.53 -34.253 26.9075
-142.146 -69.411 21.2686
-139.63 -70.7398 18.786
-221.096 -32.0566 27.0474
-157.971 -59.8004 33.3568
-205.042 32.4579 39.2843
-154.32 -61.3641 32.601
21.3229 7.29671 87.379
-119.104 18.4714 75.2731
-116.432 20.5488 75.2465
25.5783 -59.0352 64.6433
29.1137 -57.6653 65.6882
-134.633 54.9908 -50.0084
-136.951 52.5143 -51.8652
-177.099 57.9128 23.4563
-176.717 59.3822 19.8595
-70.4807 64.9117 -54.0582
-62.7932 16.9166 -83.517
-66.4052 16.9238 -83.1728
-66.9451 66.427 -52.7519
124.477 57.7403 50.1304
121.045 58.3464 50.4566
-132.441 -69.8473 26.7929
-132.815 -68.0013 30.9867
-188.88 35.1111 46.2969
-185.133 37.2791 46.4549
-232.727 13.1727 -30.6497
-60.7137 74.7665 41.2634
-61.9956 76.2959 38.1101
-231.928 16.7969 -29.6019
-175.272 -46.957 -42.1659
-178.796 -11.2358 60.8597
-181.802 -8.37785 60.2267
-195.831 53.7472 12.6509
-198.387 52.0601 14.6698
-195.137 -6.40576 -55.1455
-196.112 -2.36675 -55.0429
-155.762 25.0122 64.4051
-159.483 22.4709 64.2265
-196.211 -54.5515 -7.39845
-193.182 -56.048 -5.79669
-91.6056 75.0877 -32.8397
-87.6432 75.4627 -33.3008
-39.2308 -78.9682 -36.3262
-42.732 -77.6555 -38.6013
-35.7471 20.3686 -84.6916
-119.252 -59.0801 -50.1245
-116.057 -58.3929 -51.8193
-103.566 -58.9137 54.4059
-107.461 -57.2237 55.2777
-176.119 46.8949 -41.801
26.9034 13.8877 -86.3859
23.8259 15.7278 -86.1808
-175.614 44.5873 -44.4993
-89.4483 -39.5995 72.0855
-93.3187 -38.4668 72.0981
-1.70623 -75.0138 -46.0062
2.63279 -75.2497 -45.6139
-158.024 -33.2003 -59.8704
-154.737 -36.6346 -58.9109
26.4955 72.5686 48.9066
28.8985 70.5354 51.6383
-166.624 38.7925 53.2918
-169.029 36.4155 54.0367
126.652 60.261 46.3543
125.021 62.2374 44.2369
55.9302 20.2508 83.3722
-158.165 12.6292 67.2442
-155.549 9.85246 68.4447
-44.658 72.7458 -46.9881
71.0392 53.0319 -65.6792
-42.0261 74.4356 -44.5769
222.064 -27.8284 -30.5323
225.276 -26.0125 -29.2251
-17.9297 78.5698 -39.1334
-20.7349 77.3299 -41.3696
247.477 -7.06407 13.9944
245.671 -9.07241 16.5072
-182.898 19.8464 57.0492
-181.356 22.6884 56.5908
-56.1783 68.1585 52.0772
-53.8648 69.9981 49.8903
-221.676 26.3858 -32.1173
245.289 -12.7014 14.7128
-123.34 -44.663 -62.3434
-128.466 -46.9025 -59.36
-126.786 -44.2475 -61.791
-219.064 -11.0553 41.7909
-206.378 49.8742 -6.48302
-208.063 48.5113 -9.51829
-173.564 -35.1412 53.1127
-196.135 -34.8663 -42.645
-56.8629 10.5769 85.0662
-100.152 80.5757 4.84857
-149.824 -21.4721 67.3403
-153.214 -21.7194 66.3194
-106.18 79.7339 2.49257
-103.88 79.9464 5.60559
-208.26 -1.82684 -49.3007
-211.703 -0.429332 -47.5048
7.82936 76.1008 -44.104
9.37523 74.3346 -46.9852
-22.6359 85.5358 -19.1021
-24.8154 84.5698 -22.7278
13.1529 73.9848 -47.4244
-209.323 34.9041 -34.0775
-209.442 37.4743 -31.1309
-243.671 12.2878 -17.9902
-206.008 40.0816 -30.6855
-237.953 16.7264 23.0658
-240.125 13.5329 22.3944
-198.677 34.6977 41.321
-44.0977 -51.865 -69.397
-47.9422 -52.1847 -68.843
-65.7509 77.9801 -33.6722
-62.68 78.9758 -32.0285
-198.915 37.6916 38.4591
-195.388 39.98 38.3621
193.195 51.8472 -22.0511
191.209 51.6114 -24.5779
-17.487 71.8086 -50.4984
-15.9202 70.1458 -52.8444
-160.725 -8.68384 67.1259
-158.274 -5.14963 68.1948
-159.182 -12.1873 67.0314
-155.591 -13.9552 67.7155
-181.219 -39.3697 -46.6195
-187.07 -34.8955 -47.348
234.201 -8.1983 31.0077
231.367 -8.83977 33.3481
-185.725 -37.8064 -45.7338
-220.423 -36.332 -21.8072
-223.2 -33.1949 -23.2993
-74.9356 69.3558 47.395
-199.263 43.3599 -31.666
-202.427 40.5059 -32.9614
-79.566 71.7873 42.6088
-75.7952 71.5337 43.8587
-199.863 -47.1008 -25.1998
-196.405 -49.1628 -24.5818
-156.239 -38.5675 57.166
-155.218 -34.6087 59.9713
-162.936 56.2403 -36.4793
-159.794 58.0702 -35.2942
245.94 -16.0779 8.95225
246.756 -13.0535 10.9094
-202.197 25.1198 -45.9088
246.469 -16.6406 5.45926
-222.674 -40.7298 -3.81009
-219.563 -42.6766 -4.53664
-225.917 36.45 -12.9115
-224.094 36.2079 -16.8758
-228.901 -34.8682 10.6495
-231.376 -33.5775 7.89083
-225.472 -37.7615 9.6949
119.611 74.8212 19.8544
-172.164 -51.102 -38.7773
115.418 75.635 19.8098
47.9006 12.1405 -85.5318
51.4896 10.7536 -85.4621
-180.223 -22.1805 57.2316
-179.974 52.3127 -32.2765
-165.459 0.844213 66.2687
-168.583 2.82025 65.2423
-181.022 -17.4231 58.5534
36.4529 -59.7575 63.3274
37.7868 -57.2108 65.5447
-159.985 -59.9395 -31.9
-182.768 -21.7991 -56.3835
-184.316 -18.0325 -57.0927
-11.9659 14.8933 -86.6294
-188.59 -54.998 19.101
-192.466 -53.1212 19.6698
-145.957 9.32273 -71.0556
-143.75 12.1192 -71.1843
-174.4 52.4 35.6999
-173.452 50.7022 38.5992
-187.197 39.6992 -43.332
-231.504 33.4913 -7.79781
-229.098 35.9659 -4.9606
-234.908 30.8677 -5.93758
241.404 7.7206 23.4443
239.892 10.8364 24.102
240.61 13.4015 21.8298
-138.88 -61.8306 -39.4916
-138.123 -60.1635 -42.292
-141.497 -58.2522 -43.5829
-200.351 -41.1655 -33.6898
-218.718 20.1122 -38.5061
-52.7264 8.94448 85.5782
-56.68 -81.1833 27.5672
-60.1944 -81.461 25.7777
-152.62 56.1686 41.6814
-153.446 58.0345 38.6434
-189.415 -9.90205 -57.0383
-186.069 -8.8821 -58.5352
64.9084 -8.71708 84.5707
67.8929 -7.08965 84.4358
-196.835 -37.2206 40.1892
-200.415 -34.611 40.355
-180.668 -48.2459 -37.6838
-174.532 -52.0917 -36.0701
-215.619 -38.509 23.8557
-218.655 -36.4151 23.7598
-178.254 -50.982 -35.421
-121.72 47.8669 -60.323
-71.7038 59.239 60.0439
26.8711 -68.3037 54.6827
24.81 -66.5902 56.8716
-87.2084 -8.61758 -82.0891
-84.0271 -6.3153 -82.7024
-35.8565 85.4324 -16.9674
-39.1692 84.883 -18.7358
-75.4845 59.7658 58.9445
-117.781 48.8557 -60.4874
67.1056 -10.9792 -84.096
63.3567 -11.5828 -84.3706
-122.424 44.6611 -62.5656
-76.6224 63.7169 -54.4551
-80.0857 63.9898 -53.5171
-210.937 -46.4386 -11.8322
-207.91 -47.2776 -14.7159
-70.3817 -66.9064 51.5856
-82.8521 61.5052 -55.8632
181.008 57.5718 -20.4499
187.795 54.7414 -20.7272
-57.9798 -57.7731 -63.2037
-60.2443 -59.9518 -60.8723
185.033 56.5047 -18.9616
-52.2286 4.84046 85.9453
170.803 -60.94 -21.4144
166.657 -61.8364 -22.7989
-242.16 -11.2312 20.9366
-241.443 -7.71481 23.3969
231.623 25.8608 -22.5155
229.371 25.1798 -25.8605
225.985 27.6872 -26.9258
-235.384 -18.9703 -24.5114
-234.85 -16.6288 -26.7371
-226.071 27.1581 -27.3722
-222.955 28.4592 -29.1237
-220.771 31.3733 -28.151
-250.634 -7.2963 -0.178267
-176.063 45.2989 43.5534
58.7291 51.2096 -68.5514
59.7878 48.3789 -70.4687
128.125 68.3792 32.5342
131.615 68.3054 30.9448
-176.959 47.6028 40.5479
-181.059 46.7502 39.3049
18.7051 -86.4181 15.267
142.042 69.3648 -21.5027
141.111 68.3952 -25.0643
23.2386 -86.1703 15.8921
181.098 -44.0246 42.3148
25.6369 -86.6618 12.3797
-189.029 21.6355 -53.8631
-189.449 17.8897 -55.044
-212.326 -45.0148 14.0791
-120.854 -47.0073 -61.2056
-24.3195 -37.277 79.2591
52.3437 18.4993 -84.0615
55.8563 16.7136 -84.1587
-25.2883 -41.1258 77.2941
-119.135 -6.55294 -77.2229
-115.756 -7.76966 -77.7375
-200.054 16.4637 50.7255
-215.148 -43.2647 14.3196
-153.454 32.9963 61.4185
-156.884 31.3292 61.2303
-157.692 28.1763 62.4952
-79.9671 -83.431 0.603136
-63.8359 72.3813 -44.7888
-62.9572 70.355 -48.0511
-79.8046 -83.3553 -4.02084
-209.642 -18.6828 44.8795
-60.7631 70.9906 47.4584
-205.671 -19.6763 46.6685
-191.284 -46.3889 33.3528
-190.154 -45.0081 35.9354
-195.138 47.3183 29.0343
-192.217 -42.6385 37.4498
-97.724 19.7037 78.6547
-94.1588 20.9517 78.8643
-195.846 -41.8734 35.9821
-247.679 -8.81315 12.483
188.065 -42.022 40.5952
184.93 -44.2656 39.9693
-127.302 75.4797 7.92023
-123.705 75.9983 9.73307
48.905 1.66372 86.3042
130.449 15.5868 -73.6048
-179.75 46.5073 -40.3157
198.596 13.1791 52.3603
200.491 9.43238 52.2854
113.377 74.896 23.6818
109.64 75.34 24.4161
149.577 63.7393 -30.6941
145.75 65.3521 -29.5345
-166.874 -45.6714 -47.4217
129.85 19.3507 -72.8371
-209.811 43.7048 -21.0812
-206.951 46.1277 -19.3056
126.476 20.2028 -73.331
-61.9015 -0.401371 85.2919
-59.21 2.53402 85.4889
-53.8649 -2.03787 85.9338
[...]
POINT_DATA 10490
VECTORS F double
3.13834e-08 4.51534e-08 1.78505e-09
9.05217e-08 7.90806e-08 -1.9377e-08
1.00225e-07 4.39618e-07 2.0915e-07
2.25649e-08 5.60385e-09 -1.82527e-08
1.91371e-07 1.65712e-07 -7.49173e-10
8.75103e-08 9.35443e-08 -2.85394e-09
3.46712e-08 1.7657e-08 -3.68209e-08
-1.53855e-06 1.97768e-06 1.02388e-07
7.49193e-07 5.36792e-07 8.45828e-08
7.83758e-07 4.67209e-07 -3.07695e-08
4.82866e-09 2.90579e-08 -1.52141e-08
5.09576e-09 2.68764e-08 -8.65864e-09
9.62926e-08 2.2964e-07 1.02576e-07
-1.92159e-06 3.4217e-06 1.11692e-07
1.28927e-07 8.95009e-08 -1.05846e-08
3.19163e-06 5.24625e-07 -1.57734e-06
4.20644e-06 6.71046e-07 -2.42681e-06
-8.06937e-09 1.31921e-08 4.21435e-09
-9.27625e-09 1.32094e-08 5.60523e-09
-4.13407e-05 5.35193e-06 3.93662e-06
-3.93114e-05 6.43617e-06 5.25867e-06
-3.26121e-06 1.90475e-06 -2.81258e-07
-2.96709e-06 1.42329e-06 -2.33113e-07
1.70762e-08 1.21117e-07 -1.04767e-07
3.6415e-08 1.35074e-07 -1.25775e-07
1.84602e-08 7.84859e-08 5.16926e-08
1.08644e-08 6.34975e-08 4.36527e-08
-2.55734e-08 9.91111e-08 1.27046e-07
-8.28157e-08 8.73841e-08 9.55154e-08
1.84833e-07 1.44792e-07 -1.35327e-07
4.09103e-07 1.93344e-07 6.88577e-08
2.83498e-07 2.02585e-07 -4.83259e-08
1.20779e-07 2.39239e-06 6.72676e-07
-2.23833e-07 1.1862e-06 3.26353e-07
-1.75705e-06 2.72128e-06 -1.97391e-08
5.99366e-09 8.98526e-09 1.99811e-08
0.000147964 4.19127e-05 9.729e-05
0.000158177 4.57439e-05 0.000100559
1.05854e-08 9.94071e-10 -1.95315e-08
9.31304e-09 -3.06779e-10 -9.51147e-09
5.00747e-07 2.5442e-07 3.21189e-08
1.06956e-08 9.40182e-09 2.16288e-08
3.45651e-07 2.3152e-06 4.4829e-07
-1.3005e-06 3.28332e-06 -3.01427e-07
-1.82128e-08 1.22582e-08 -4.65704e-09
-2.89623e-08 2.56839e-08 1.07187e-08
1.18126e-06 7.96425e-07 -5.03261e-08
9.88683e-07 1.69511e-06 3.32585e-07
-1.35303e-08 5.28524e-08 -4.01163e-08
-7.89608e-09 6.2423e-08 -5.0307e-08
3.21996e-08 7.3526e-08 -3.05685e-08
4.70683e-08 7.99261e-08 -3.28088e-08
7.77951e-07 1.84649e-06 5.47811e-07
6.73852e-07 1.709e-06 5.8e-07
-9.64912e-09 2.45792e-08 1.72135e-09
-7.17559e-09 2.11366e-08 3.74132e-09
2.24973e-08 3.13283e-08 3.61842e-08
1.11698e-07 5.61733e-08 -6.38439e-08
-8.98167e-09 6.9616e-09 -8.43198e-09
-9.47259e-09 6.16097e-09 -8.63595e-09
-2.41669e-06 3.16869e-06 -2.41682e-07
-2.16809e-06 4.19709e-06 -1.80481e-07
9.05962e-09 2.69346e-08 2.65333e-08
-1.38817e-08 2.66471e-08 4.69368e-08
-2.30936e-09 4.86928e-09 4.12662e-09
1.78161e-05 6.2061e-06 1.26045e-06
-4.75729e-09 9.73725e-09 8.0976e-09
-5.11953e-07 5.11192e-06 -7.86252e-08
2.82636e-07 3.76415e-06 -1.83069e-07
-2.51657e-07 8.14083e-06 6.81509e-07
-3.73452e-06 6.04668e-06 1.06472e-07
-2.22655e-06 4.34297e-06 2.15357e-09
-1.13084e-06 2.18487e-06 -2.3487e-07
1.47747e-09 1.42349e-08 1.70858e-08
8.32391e-10 5.71432e-09 -4.8646e-10
-1.23158e-09 3.58209e-09 -3.79892e-09
3.37464e-07 3.54423e-07 -2.30099e-07
9.03606e-07 1.54195e-06 -2.02308e-07
4.62019e-07 4.67482e-07 -2.85241e-07
-1.40784e-10 1.06894e-08 9.94231e-09
-3.70045e-09 5.08028e-09 3.71432e-09
-1.20111e-09 4.91478e-09 8.95379e-10
6.7087e-09 5.14879e-09 1.32097e-08
9.66332e-09 3.77545e-09 2.02195e-08
5.04266e-09 2.38107e-09 1.35449e-08
5.698e-09 7.26979e-09 1.42984e-08
1.49359e-08 1.43479e-08 3.43743e-08
1.70026e-07 1.91823e-07 -4.991e-08
1.73862e-08 1.30859e-08 3.4695e-08
3.6678e-07 4.42347e-06 -3.8038e-07
1.95185e-06 2.4746e-06 -2.29216e-07
1.79193e-06 2.93734e-06 -4.62755e-07
-9.69558e-09 1.23821e-07 1.13538e-07
-3.38817e-08 1.83212e-07 1.6266e-07
5.44919e-06 3.70015e-06 2.27289e-06
7.3346e-06 2.84244e-06 5.071e-07
4.51847e-07 3.29707e-07 -3.96677e-07
1.18745e-06 5.43077e-07 -3.30567e-07
4.76281e-05 2.52537e-05 2.27215e-05
2.68778e-06 7.50183e-07 -9.54169e-08
2.41585e-06 -1.99054e-07 -2.76593e-07
5.00832e-05 2.47376e-05 2.33691e-05
-1.01883e-06 4.26531e-07 -1.81586e-07
-1.08916e-06 4.44915e-07 -1.94621e-07
4.07998e-09 7.52204e-09 2.20657e-08
3.47975e-09 1.03378e-08 2.45e-08
7.47117e-07 4.18959e-07 5.53119e-08
7.37648e-07 5.4485e-07 -7.74613e-08
3.58124e-08 4.71758e-08 -1.29557e-08
8.48992e-05 3.56998e-05 -4.93919e-05
7.70085e-05 3.33568e-05 -5.14426e-05
3.34622e-08 5.06776e-08 -3.26651e-09
1.87085e-08 1.66487e-09 -1.13678e-08
2.41865e-07 2.17297e-07 1.27084e-07
1.37413e-07 1.15308e-07 6.67961e-08
5.47245e-07 2.84497e-07 -1.71816e-07
6.02474e-07 2.90079e-07 -3.21771e-08
1.95853e-08 7.58051e-08 -1.72629e-08
8.43965e-08 1.02877e-07 -4.12118e-08
4.34987e-07 1.94894e-06 -6.28161e-07
1.11298e-06 7.58159e-07 7.30304e-08
1.30347e-09 -2.02353e-10 -2.72108e-09
2.94246e-10 -2.15146e-10 9.00964e-10
3.44608e-05 1.16137e-05 1.47861e-05
3.55489e-05 9.32402e-06 9.6748e-06
-1.86002e-08 2.95233e-08 -6.17126e-08
-1.29241e-08 3.76258e-08 -7.39306e-08
3.47414e-06 1.38525e-05 3.15211e-06
7.12076e-08 8.71182e-08 -1.2341e-07
6.88021e-08 1.07e-07 -1.39427e-07
3.01986e-08 9.27233e-08 1.07429e-07
4.69324e-08 1.36243e-07 1.52189e-07
2.1623e-06 6.94886e-07 -3.35671e-07
3.81427e-07 7.79331e-06 1.26746e-06
-2.1959e-06 4.04711e-06 6.64305e-07
6.09637e-07 7.50155e-08 -2.19244e-07
1.44532e-07 4.28437e-07 2.57288e-07
1.68822e-07 6.19141e-07 3.57055e-07
-2.96759e-08 5.43051e-08 -8.83992e-08
-2.8588e-08 3.48675e-08 -5.77188e-08
7.52403e-08 1.49898e-07 -1.07422e-07
2.00697e-08 9.6247e-08 -6.62942e-08
-6.08272e-05 2.69784e-05 -3.59967e-05
-5.63965e-05 2.86194e-05 -3.52288e-05
2.21938e-06 9.46873e-07 1.60206e-07
1.85038e-06 1.13117e-06 -5.377e-08
-5.28397e-07 2.18583e-07 -1.07439e-07
-1.49414e-06 7.61336e-08 4.09837e-07
-5.0214e-07 3.0447e-07 -3.27381e-08
7.01357e-07 8.3778e-07 4.45563e-08
1.95135e-07 2.64616e-07 1.61542e-08
4.35565e-05 5.50693e-05 8.01885e-05
-6.72595e-06 3.32022e-06 1.79024e-06
5.4903e-05 5.06693e-05 7.82713e-05
-1.39875e-09 3.28324e-09 -4.23413e-09
-8.8765e-10 2.69343e-09 -3.23012e-09
-1.51475e-05 0.000101257 0.000204146
1.55325e-05 8.68939e-05 0.000161473
-8.98947e-11 1.11808e-09 7.38989e-10
-2.90344e-10 1.23155e-09 1.19038e-09
2.89541e-07 3.7015e-07 -1.51728e-08
2.51305e-07 4.18689e-07 -6.93087e-08
3.89406e-05 2.66045e-05 -2.9677e-05
3.19622e-05 3.03767e-05 -3.8395e-05
1.3736e-07 7.56281e-08 -5.38352e-08
-6.88289e-10 5.57469e-10 1.87103e-09
1.62133e-07 1.38008e-07 -1.38126e-07
2.3586e-08 9.91481e-08 -8.45682e-08
1.46001e-07 5.2601e-08 -7.43247e-08
1.42356e-08 5.17931e-08 2.28085e-08
4.22784e-07 2.21858e-07 5.96156e-08
4.52718e-07 2.37132e-07 -2.50686e-09
4.34543e-08 6.73442e-08 6.19256e-08
3.69855e-08 1.23807e-08 -3.09311e-08
1.32853e-06 4.0125e-06 -3.90275e-07
5.41905e-05 8.07555e-06 2.83727e-06
2.28558e-09 1.76536e-07 5.68953e-08
-2.29274e-08 2.38564e-07 7.16198e-08
4.20221e-05 7.32261e-06 -1.50871e-05
4.81242e-05 8.91045e-06 -1.78978e-05
4.23107e-08 6.12757e-08 -2.41226e-08
4.60482e-08 1.01423e-07 -2.59993e-08
-7.46701e-05 4.05037e-05 6.82651e-05
-5.21235e-05 4.59883e-05 7.14837e-05
0.00039758 6.73376e-05 0.000243833
0.000212247 9.47376e-05 0.000324138
-5.45922e-05 2.35256e-05 3.48473e-05
2.37502e-07 1.7618e-07 2.00695e-09
6.00185e-07 3.4188e-07 -8.26336e-08
4.72992e-08 7.42577e-08 -2.75403e-08
5.68501e-07 4.17456e-07 7.81954e-08
3.63832e-08 8.34552e-08 -1.46712e-08
3.74686e-08 7.09652e-08 6.19122e-09
3.10164e-07 -8.40886e-08 2.53087e-07
2.8788e-07 2.54486e-07 -2.12578e-07
2.57891e-07 3.15512e-07 -2.61135e-07
8.52562e-05 3.58819e-05 6.27155e-05
8.46978e-05 3.72001e-05 7.14342e-05
5.04864e-07 2.018e-08 2.99801e-07
4.23142e-07 2.08966e-07 4.59531e-08
-7.94895e-08 3.86804e-08 5.70654e-09
-1.04091e-07 5.54956e-08 1.74108e-08
8.51127e-06 7.02657e-05 9.95566e-05
-1.23036e-05 6.35133e-05 8.47614e-05
4.5864e-07 3.20691e-07 1.75896e-07
6.00278e-07 2.62592e-07 1.90358e-07
1.11482e-07 1.42052e-07 5.82096e-08
1.87599e-07 2.6607e-07 1.07577e-07
5.0798e-08 4.4428e-08 -6.16837e-08
5.91469e-08 4.06737e-08 -5.85688e-08
-2.56453e-10 4.28222e-09 1.36171e-09
-5.80804e-10 4.93775e-09 1.79485e-09
4.26673e-08 3.16382e-08 -4.73503e-08
7.26272e-10 3.53738e-09 -6.77483e-09
1.00603e-10 5.01887e-09 -7.24256e-09
5.84992e-05 1.69746e-05 -1.35163e-05
6.24548e-07 4.75843e-07 1.70583e-07
6.22501e-07 4.49528e-07 8.45353e-08
4.85521e-05 1.1341e-05 -8.00753e-06
5.34611e-05 1.63689e-05 -1.53866e-05
2.16602e-09 6.58776e-09 -1.44042e-08
4.35718e-10 3.52513e-09 -7.46893e-09
4.55555e-08 1.40246e-07 1.09839e-07
1.09216e-07 1.36416e-07 1.13309e-07
1.53287e-06 1.03062e-06 7.5092e-07
1.84609e-06 1.00154e-06 6.24856e-07
8.64079e-10 2.37595e-09 1.32878e-09
4.97753e-10 2.67981e-09 1.8002e-09
2.23347e-07 1.61231e-07 -3.21626e-08
6.69373e-10 1.57394e-09 1.04057e-09
-4.39441e-09 3.10543e-09 -1.6825e-09
-3.04875e-09 1.53451e-09 3.67819e-09
2.00073e-07 1.48847e-07 -7.95457e-09
2.57221e-07 1.91713e-07 -6.50953e-09
2.37152e-10 2.57291e-09 8.98476e-09
-1.77274e-09 3.63246e-09 8.9955e-09
-1.45267e-09 1.16106e-09 3.3821e-10
-2.57595e-06 3.53665e-07 5.67059e-07
1.8437e-08 -8.94338e-10 -8.83549e-09
-2.65729e-06 4.50418e-07 1.75639e-07
8.06801e-07 1.71183e-06 2.98323e-07
6.94106e-07 1.10297e-06 1.9e-07
6.65399e-08 1.72258e-07 9.23803e-08
1.4442e-06 4.66467e-07 -2.29674e-07
3.0547e-07 1.58611e-07 9.13252e-08
3.14405e-07 2.33024e-07 8.93506e-08
1.02119e-07 1.91649e-07 9.56449e-08
-2.4853e-08 1.19697e-07 1.14693e-07
-1.41107e-08 1.29461e-07 1.13986e-07
1.65259e-08 5.39298e-09 -2.0272e-08
3.81727e-08 4.36264e-08 -3.20011e-08
1.20938e-07 7.8567e-08 -7.25972e-08
2.51079e-06 1.09216e-05 1.83522e-06
2.90676e-09 2.61853e-09 1.10432e-08
1.37024e-09 2.71163e-09 8.95443e-09
9.11154e-07 6.99013e-07 -1.37352e-07
6.8576e-07 9.96734e-07 2.25098e-10
1.57826e-06 1.02285e-06 -5.5763e-07
1.15197e-06 8.01995e-07 -4.19902e-07
8.59178e-07 7.9487e-07 2.73913e-07
1.91012e-07 1.58114e-07 -1.4495e-08
1.86844e-07 1.48452e-07 2.08158e-08
1.52426e-07 1.23298e-07 -9.64048e-08
-4.56434e-09 8.51374e-09 2.93624e-09
-3.8951e-09 1.02865e-08 1.06368e-10
-4.58718e-09 1.09542e-08 -5.53134e-10
3.43828e-08 1.72334e-08 -4.17757e-08
1.8754e-08 2.68903e-08 -4.57424e-08
4.17323e-08 5.2331e-08 -8.65224e-08
4.75503e-10 2.1029e-08 -2.60272e-08
9.00592e-08 1.20805e-07 5.37437e-10
2.30717e-06 5.72749e-06 -4.24681e-07
7.31452e-09 1.05026e-08 3.27611e-08
3.39534e-09 1.01087e-08 3.2904e-08
7.93358e-07 8.48836e-08 2.40999e-07
3.50813e-06 1.19258e-06 -8.58247e-08
9.45906e-08 1.40508e-07 -6.2818e-08
1.18853e-07 1.07108e-07 -6.24794e-08
2.2177e-07 4.79891e-07 2.86129e-08
6.73594e-08 8.64228e-07 6.59168e-08
1.38633e-08 2.56162e-08 3.20238e-08
1.19473e-08 2.8212e-08 3.14442e-08
8.8869e-09 1.39261e-08 -2.30352e-08
7.1624e-09 6.11914e-09 -1.30738e-08
4.55999e-09 2.79689e-09 9.54543e-09
4.138e-09 4.74612e-09 1.19222e-08
4.77043e-09 1.04039e-08 -1.79043e-08
9.87159e-06 4.46617e-06 1.10549e-06
2.45005e-05 2.52434e-05 -2.13231e-05
-8.36463e-10 1.07602e-07 1.34449e-07
-4.47218e-08 9.4675e-08 1.13235e-07
7.6618e-07 1.47e-06 -2.53928e-07
7.25835e-07 1.7015e-06 -2.2017e-07
0.000313486 4.94568e-05 0.000167906
0.000295585 5.29067e-05 0.000164035
2.3825e-05 2.64505e-05 -2.30839e-05
9.53123e-06 7.94812e-06 4.14768e-06
-8.02248e-07 7.40451e-07 -1.75033e-07
-8.34352e-07 6.12227e-07 -1.60741e-07
6.04873e-06 4.3784e-06 1.67657e-06
3.13071e-05 3.19753e-05 3.20206e-05
2.59862e-05 2.22652e-05 2.18616e-05
6.46594e-10 -2.56141e-10 -3.77937e-10
-2.10301e-09 3.05495e-09 -6.15828e-09
-5.62998e-08 4.22259e-08 4.53544e-08
3.15452e-05 1.91268e-05 1.53308e-05
-2.13944e-07 6.5499e-08 -4.73944e-08
-1.67249e-07 7.62525e-08 1.59152e-08
-2.59387e-07 2.09982e-07 -1.62795e-07
-1.37503e-07 1.20611e-07 -1.02112e-07
-2.05699e-07 7.87062e-08 -1.11457e-08
6.26119e-07 5.25569e-06 -2.49499e-07
1.25646e-09 1.82906e-09 -3.97443e-09
1.08534e-09 2.25704e-09 -5.14706e-09
-2.09242e-09 1.58957e-08 5.4678e-09
4.64387e-09 1.53462e-08 1.08305e-08
-6.09805e-09 9.77694e-09 3.57247e-09
-1.18551e-08 1.71409e-08 3.83729e-09
-1.43899e-08 1.61455e-08 1.83688e-09
-5.51919e-09 1.89631e-08 -8.14407e-09
1.11724e-08 9.6368e-09 -1.79634e-08
1.5234e-07 1.68634e-07 1.33681e-08
1.61211e-07 1.05835e-07 -4.75696e-08
1.43788e-07 1.2335e-07 -4.77518e-10
-6.31165e-09 2.69467e-08 -3.16988e-09
8.06066e-07 4.33857e-07 -5.24496e-08
-4.12135e-06 3.75294e-06 2.37129e-06
-2.36632e-06 3.90746e-06 2.43682e-06
-1.15871e-06 1.43651e-07 2.56709e-07
-9.82601e-07 -4.65928e-09 5.219e-07
1.29977e-06 6.79158e-07 -1.03016e-07
1.17234e-06 2.87832e-07 3.18646e-07
-2.35058e-09 2.4777e-09 1.43719e-08
-6.08347e-07 -2.16019e-08 -5.61635e-07
-1.09397e-06 8.99029e-08 -5.08683e-07
5.24823e-10 8.13559e-10 4.31154e-09
-4.55027e-09 4.12943e-09 6.67788e-09
-1.45706e-09 1.76945e-10 1.60144e-09
1.82444e-07 3.70099e-07 7.03241e-08
1.25662e-07 3.53331e-07 6.19317e-08
-2.96159e-09 4.04237e-09 7.43338e-09
2.17174e-07 1.56625e-07 -1.72778e-07
-3.40858e-08 2.61593e-07 1.21728e-07
-1.73051e-06 2.45899e-06 4.09245e-07
-1.67081e-06 2.30833e-06 3.2268e-07
-9.47059e-08 2.34173e-07 1.2078e-07
-2.36119e-08 9.19528e-07 -7.35411e-08
3.38906e-08 9.56854e-07 -1.0178e-07
1.95518e-07 3.48271e-07 -1.86823e-08
-3.39681e-09 5.08461e-09 9.09685e-09
1.29883e-06 2.45846e-06 -9.23567e-07
1.59047e-06 1.53216e-06 -2.85129e-07
-7.03074e-08 1.66192e-06 -7.71096e-07
-6.80536e-09 7.63891e-10 -5.07595e-09
4.03338e-05 3.80603e-05 5.44698e-05
3.07701e-05 3.69656e-05 4.91882e-05
-4.38828e-10 3.92109e-10 -7.01487e-09
1.60377e-08 3.9737e-08 2.56855e-08
7.18972e-05 3.9967e-05 -4.85146e-05
2.3734e-08 5.55838e-08 3.62166e-08
1.03452e-08 9.41213e-09 2.03461e-08
1.68669e-08 8.16133e-09 2.11397e-08
3.20361e-07 2.93081e-07 -2.14154e-07
1.30307e-08 9.32709e-09 1.87991e-08
2.11784e-06 6.82798e-06 -1.38843e-06
3.96267e-06 2.25992e-06 -2.12437e-08
8.00896e-09 2.06124e-08 2.93127e-08
-3.25347e-09 2.24846e-08 7.79007e-09
-7.71313e-09 5.51074e-09 1.0077e-08
-4.95113e-09 1.81762e-09 4.81517e-09
8.20336e-06 1.80957e-06 -1.10422e-06
1.04285e-05 2.64671e-06 -4.4405e-06
-2.2003e-06 1.70064e-06 1.19836e-07
-1.5956e-07 4.01377e-07 5.03921e-08
2.12224e-06 8.1995e-07 -2.12456e-07
-3.98989e-08 5.02965e-08 5.85741e-09
-2.13394e-08 5.56567e-08 -3.18607e-11
-1.90191e-06 1.43063e-07 6.62231e-07
-2.28248e-06 7.39171e-07 -1.02607e-06
-1.11618e-06 2.89619e-07 -6.44793e-08
-1.32103e-06 1.74917e-07 -4.11049e-07
-1.95396e-08 4.83929e-08 -3.818e-08
-4.2896e-07 3.95309e-07 1.14135e-08
3.60617e-07 1.41279e-07 -1.46316e-07
3.92054e-07 1.56092e-07 -1.41312e-07
-4.51794e-07 4.23467e-07 2.12829e-08
7.27638e-07 4.53211e-06 8.59185e-08
1.77138e-06 3.86031e-06 3.57061e-08
1.10581e-06 3.06652e-06 1.57527e-07
2.94116e-09 3.81302e-09 1.31354e-08
9.12759e-06 1.96294e-06 3.90831e-07
1.04406e-05 2.27934e-06 -2.21788e-06
-1.1161e-06 6.15654e-06 -1.05427e-06
2.38954e-09 5.37039e-10 4.98904e-09
1.91144e-06 3.59637e-06 7.82771e-08
1.5863e-06 1.18151e-05 6.79171e-06
5.27725e-06 5.40841e-06 2.1916e-06
1.34127e-05 1.17057e-05 5.4662e-06
9.41522e-08 2.34125e-07 5.08512e-08
7.10481e-08 3.28882e-07 3.92421e-08
-2.03093e-07 1.24949e-06 1.37374e-07
-9.36098e-09 6.88119e-07 7.72619e-08
5.0827e-07 2.23325e-07 1.02264e-07
2.40358e-07 3.33236e-07 7.30379e-08
1.74098e-06 5.97978e-07 -6.65377e-09
2.50866e-06 1.10715e-06 4.98962e-07
-8.27441e-09 1.1447e-09 9.21486e-09
-7.54477e-09 2.87775e-10 6.38977e-09
2.7345e-08 1.14611e-08 -4.00951e-08
1.93131e-08 7.74092e-09 -2.67672e-08
-4.03617e-09 3.88727e-08 6.02363e-08
5.31382e-09 2.92243e-08 5.66788e-08
-3.96509e-09 3.2705e-08 5.54744e-08
1.86874e-07 7.91467e-08 1.12924e-07
2.74917e-07 1.67365e-07 -4.3231e-08
3.84292e-07 1.85257e-07 7.8743e-08
1.49603e-08 3.25809e-08 -3.78749e-08
8.74305e-09 2.80315e-08 -3.14724e-08
-2.75432e-08 4.38101e-07 -2.54391e-07
3.27768e-08 2.64569e-07 -1.58327e-07
-1.01486e-07 2.77106e-06 -5.14499e-07
-6.99935e-07 1.93371e-06 -3.62605e-07
-8.21022e-10 2.20361e-08 -2.2572e-08
1.59103e-07 6.46243e-08 -4.86928e-08
-8.70808e-09 5.16794e-09 6.22851e-09
5.45093e-09 1.33783e-08 -2.07158e-08
-1.56209e-06 3.69416e-06 -1.577e-07
-4.28781e-08 2.83144e-07 -2.10628e-07
-7.7819e-08 2.74285e-07 -1.94453e-07
3.4724e-05 3.49769e-05 3.22902e-05
1.54059e-06 7.74514e-07 1.05666e-06
0.000137001 1.22907e-05 -1.28782e-05
0.000166348 1.47865e-05 -4.73713e-05
0.000105076 1.60425e-05 -6.67231e-05
0.000144071 1.49757e-05 -3.83096e-05
1.58588e-06 7.54816e-07 1.20445e-06
3.30036e-05 2.84148e-05 2.5239e-05
2.83373e-05 2.93807e-05 2.44545e-05
1.06019e-08 1.08731e-08 -2.47492e-08
-6.63582e-09 1.96894e-09 -1.35077e-08
-3.65548e-09 1.41045e-09 -1.55961e-08
1.29675e-08 9.67282e-09 -2.41647e-08
7.11028e-09 6.14001e-09 -1.5754e-08
1.20878e-07 1.6262e-07 3.90393e-08
1.00218e-07 2.47762e-07 1.29191e-07
-6.39683e-07 1.06049e-07 1.85198e-07
-2.74932e-05 8.62517e-06 -7.61608e-06
-2.27773e-05 1.58692e-05 -1.79495e-05
-7.3618e-07 7.89044e-07 -2.18953e-07
1.18283e-07 1.40982e-07 -1.05639e-07
2.24276e-07 2.32799e-07 6.82902e-08
1.17524e-07 3.23686e-07 -1.71518e-07
1.20336e-07 1.64153e-07 -1.05967e-07
4.18239e-08 4.73851e-09 2.97906e-08
3.50656e-08 2.23381e-08 5.0304e-08
2.44111e-08 1.45844e-08 3.55226e-08
1.18507e-06 1.54998e-06 -1.09872e-07
1.31888e-06 1.83727e-06 -1.12803e-07
-5.74984e-05 2.57725e-05 -3.80072e-05
-9.1717e-08 1.86166e-07 2.73137e-09
9.23505e-09 1.16183e-08 2.42259e-08
-1.41255e-08 3.16373e-08 5.722e-08
6.23157e-07 1.80704e-06 -1.96058e-07
6.6239e-07 1.29092e-06 -1.64059e-07
-5.61658e-08 8.75845e-08 -3.15654e-09
5.85364e-08 8.50062e-08 -7.01108e-09
-1.01942e-07 1.44732e-07 -1.27221e-08
-2.46708e-05 1.82441e-06 -8.20478e-07
-1.57609e-09 9.05607e-08 -4.4642e-08
-8.75047e-09 7.90447e-08 -4.05111e-08
-7.73061e-06 -1.26459e-06 -3.30491e-06
6.55599e-07 5.63373e-07 -1.70388e-07
-1.75688e-05 6.17304e-06 6.568e-06
-3.20539e-09 3.02079e-08 -1.99739e-09
1.42076e-06 5.09726e-07 1.40154e-07
1.44346e-06 4.4348e-07 2.88301e-07
8.27997e-10 2.51756e-08 -1.10495e-08
-1.51291e-09 2.46614e-08 9.8621e-09
5.8733e-08 9.36901e-08 -4.31373e-08
1.1614e-09 1.41905e-09 -6.05228e-09
1.75112e-09 2.96191e-09 -9.97528e-09
2.96133e-07 2.77477e-07 -5.21899e-08
3.25442e-07 2.44779e-07 2.61069e-08
2.35732e-06 1.99194e-06 8.56817e-07
4.07373e-05 4.76897e-05 6.12036e-05
3.96644e-05 4.82561e-05 5.64893e-05
5.0987e-09 3.17619e-10 -3.2066e-09
-2.54237e-09 4.17087e-10 -8.44347e-09
2.0234e-05 3.30001e-05 3.72186e-05
2.23291e-07 7.72722e-08 8.62422e-08
1.42373e-07 1.06126e-07 1.51814e-08
-4.19022e-09 1.74469e-08 3.96348e-09
-4.78008e-08 1.21227e-07 1.0854e-07
-4.97967e-08 1.3421e-07 1.10125e-07
-4.66007e-07 2.94512e-06 2.47378e-07
-6.54433e-08 4.00178e-08 3.08671e-08
6.35304e-09 5.40338e-08 4.94197e-08
-7.57864e-05 4.36269e-05 -6.72722e-05
-5.59169e-05 3.4421e-05 -4.91936e-05
-6.13322e-07 2.92477e-06 2.55564e-07
1.01752e-06 1.1559e-06 -2.28453e-07
-1.79162e-07 2.39852e-06 3.19339e-07
1.13748e-09 1.03928e-08 -7.0793e-09
1.80111e-07 6.79659e-07 -1.99809e-07
-1.74049e-05 3.74045e-05 -3.67467e-05
3.41924e-07 3.52715e-07 -2.40829e-08
7.6929e-07 4.91135e-07 4.44522e-07
2.7987e-08 4.94925e-08 -2.43293e-08
-7.3282e-09 1.06401e-08 6.7956e-09
2.53068e-09 1.13763e-09 -4.2692e-09
-9.7034e-10 1.66153e-09 -9.56425e-09
-1.44049e-05 2.53534e-05 -2.47972e-05
-7.46705e-09 1.44635e-08 1.86014e-08
1.06981e-06 3.95602e-07 -1.70252e-07
-6.76461e-10 -3.29272e-10 2.72698e-10
3.6915e-08 6.21241e-08 6.97812e-08
6.31303e-09 2.91772e-09 1.01621e-08
2.60831e-05 2.76802e-05 -1.9169e-05
1.94733e-07 8.34595e-08 -8.71721e-08
9.97734e-06 3.13633e-05 -2.58386e-05
0.000774637 3.56066e-05 -0.000229918
0.000729117 4.53192e-05 -0.000231325
1.19023e-08 3.82767e-08 3.99236e-08
-9.48909e-05 8.11731e-05 -0.000204272
1.31044e-08 4.40459e-08 4.00039e-08
-5.21562e-08 5.44961e-08 5.03964e-09
-5.62585e-08 4.11916e-08 -7.79188e-09
2.36292e-08 6.24008e-08 5.58558e-08
7.97006e-07 9.16861e-07 -2.71693e-07
5.68616e-09 4.0263e-09 -9.9276e-09
2.43629e-07 1.7579e-07 -4.02113e-08
4.29207e-05 5.46286e-05 -5.84567e-05
2.34373e-07 1.32821e-07 4.13617e-08
2.56535e-07 1.17524e-07 9.18339e-08
2.40519e-07 1.23934e-07 7.40049e-08
3.14597e-05 5.47079e-05 7.8425e-05
-7.35518e-08 3.96364e-08 -1.34992e-08
-6.45987e-08 3.50574e-08 -2.89976e-08
-1.50556e-07 9.26022e-08 -1.06577e-08
-2.56456e-07 2.10451e-07 -5.26963e-08
3.53352e-05 5.54675e-05 7.69896e-05
7.68071e-06 2.0894e-06 1.10781e-07
1.57551e-06 5.60296e-06 -3.10123e-06
1.43542e-06 4.62014e-06 -2.40948e-06
0.000449728 4.8114e-05 -0.000242004
0.000443304 4.6569e-05 -0.00019809
3.91078e-06 1.94657e-06 -4.4055e-07