# vtk DataFile Version 2.0
S, Created by Mohamad Ibrahim Cheikh
ASCII
DATASET UNSTRUCTURED_GRID
POINTS 10490 double
-223.577 20.3398 -34.7911
-223.726 23.2875 -32.7661
-130.487 -29.2893 69.293
-194.382 -37.8829 -41.0235
-207.464 29.5142 40.0416
-235.872 27.4032 13.474
-191.272 -39.7112 -41.0841
14.3553 -3.07041 87.8029
-191.044 39.2407 -41.6617
-193.383 36.9488 -42.4296
-251.146 3.21437 -3.38193
-251.006 5.46399 -0.71545
-204.324 29.3087 -42.1159
18.542 -1.41228 87.7491
-201.225 30.3669 -43.1792
-151.238 68.7587 -14.6929
-148.42 69.9717 -12.2879
241.381 21.7611 -11.7083
240.377 24.3452 -8.7819
38.8101 73.0964 -47.0799
42.6605 72.3441 -47.828
45.3428 -3.15047 -86.5006
49.2115 -1.47456 -86.2863
-145.562 -45.4888 -55.5039
-142.057 -46.9126 -55.4306
-191.797 -27.3599 49.9171
-189.472 -30.0387 49.4618
-64.341 -67.8306 51.3437
-66.486 -66.012 53.3406
-121.222 -41.6738 -64.8708
-205.476 44.6138 24.177
-208.423 41.8786 25.9191
-64.8718 -22.5111 81.9879
-61.2491 -23.8854 81.9402
44.2594 4.26653 86.5215
-201.398 -44.9167 27.5784
-49.9305 83.0188 -23.3807
-46.6063 82.7514 -25.1051
-109.54 -78.4117 -11.2499
-105.514 -79.2425 -10.0789
-195.479 42.6492 35.3088
-200.946 -43.0023 30.8407
-54.42 -15.2494 84.551
3.47503 8.37575 87.5921
226.254 36.0729 -13.2456
223.493 37.2799 -15.4577
-146.961 22.446 -67.7936
-143.804 23.7271 -68.1852
-167.023 -43.0207 -49.7777
-163.504 -43.4752 -50.8025
-215.265 -7.15422 -44.939
-215.165 -3.15811 -45.4534
-105.608 -17.554 77.9127
-104.069 -21.0925 77.2861
-247.961 -12.5201 7.72455
-247.223 -12.2223 10.5724
-226.222 -18.8436 33.5166
-129.02 -40.8328 -63.5507
238.446 4.07593 -27.684
236.191 2.11827 -30.1598
30.6125 -3.64875 -87.2694
26.6462 -1.89049 -87.4843
-224.96 -22.5375 32.2524
-47.6617 -75.8703 41.3471
-235.553 -26.7702 15.3058
-109.914 51.3689 -60.2175
-237.92 -25.2881 13.1996
-16.8511 -1.33512 -87.7921
-20.0135 -3.90568 -87.6339
25.2816 7.71754 -87.2135
27.2755 3.85951 -87.3958
25.389 1.83051 -87.5313
45.9351 -6.26258 -86.2928
-242.159 -16.9736 16.6276
249.587 -5.36862 -9.40939
249.11 -2.30238 -11.881
-169.13 48.1776 43.8268
30.4849 -13.4353 -86.3117
-165.5 47.9533 45.7283
-244.371 -14.4422 14.9738
243.986 6.9283 20.1946
244.544 3.56472 20.2423
-218.529 -34.2523 26.9092
-142.145 -69.4107 21.2704
-139.629 -70.7397 18.7871
-221.095 -32.0558 27.0491
-157.969 -59.7989 33.3604
-205.031 32.4712 39.2801
-154.318 -61.3628 32.6044
21.3134 7.50653 87.3615
-119.006 18.5962 75.2614
-116.341 20.6947 75.2236
25.5772 -59.0267 64.6511
29.1108 -57.6528 65.6993
-134.406 55.134 -49.9254
-136.667 52.6312 -51.8384
-177.079 57.9283 23.4362
-176.658 59.4087 19.8442
-69.1591 65.8235 -53.1572
-62.6942 16.9901 -83.5112
-66.3174 16.9407 -83.1779
-65.6499 67.4318 -51.6652
124.431 57.7565 50.1258
120.996 58.3644 50.4502
-132.441 -69.8467 26.7946
-132.815 -68.0005 30.9885
-188.835 35.1356 46.3011
-185.088 37.3097 46.4522
-232.725 13.1765 -30.6506
-58.4846 75.8612 39.6272
-59.7936 77.3677 36.339
-231.926 16.8008 -29.6012
-175.27 -46.9579 -42.1658
-178.776 -11.2189 60.8699
-181.792 -8.37146 60.2313
-195.801 53.7637 12.6383
-198.35 52.0775 14.6684
-195.137 -6.40048 -55.146
-196.107 -2.35945 -55.0457
-155.744 25.1206 64.3681
-159.426 22.5135 64.2289
-196.21 -54.5516 -7.39897
-193.182 -56.048 -5.79621
-90.3678 75.4458 -32.4365
-86.3464 75.8788 -32.7659
-39.2327 -78.966 -36.3308
-42.7333 -77.6526 -38.607
-35.6732 20.8531 -84.5774
-119.246 -59.0731 -50.1344
-116.051 -58.3848 -51.83
-103.564 -58.9072 54.4134
-107.458 -57.2132 55.2895
-176.008 46.9288 -41.8203
26.8891 14.1854 -86.338
23.723 15.8929 -86.154
-175.582 44.5909 -44.5112
-89.4376 -39.574 72.1011
-93.3054 -38.4274 72.1212
-1.709 -75.0101 -46.0122
2.63007 -75.2471 -45.6184
-158.018 -33.1898 -59.878
-154.736 -36.6279 -58.9155
24.6661 73.4124 47.7507
27.1674 71.4013 50.5519
-166.504 38.8463 53.2987
-168.925 36.4775 54.0348
126.628 60.2682 46.3533
124.957 62.2387 44.2571
55.8871 20.2873 83.3669
-158.122 12.6756 67.2476
-155.538 9.86486 68.4459
-42.62 74.4594 -44.468
70.7674 53.1696 -65.6038
-39.7248 76.0572 -42.025
222.064 -27.828 -30.5327
225.276 -26.0122 -29.2254
-14.1255 80.737 -34.657
-17.2313 79.5862 -37.0632
247.477 -7.06408 13.9945
245.671 -9.07237 16.5073
-182.881 19.871 57.0473
-181.341 22.7156 56.5854
-54.427 69.5174 50.4843
-52.099 71.3686 48.1477
-221.667 26.3894 -32.1219
245.288 -12.7014 14.7131
-123.329 -44.6544 -62.3522
-128.466 -46.8967 -59.3648
-126.776 -44.2458 -61.7947
-219.064 -11.0494 41.7925
-206.353 49.8876 -6.47788
-208.036 48.5259 -9.51644
-173.56 -35.1351 53.1184
-196.131 -34.866 -42.6474
-56.773 10.7497 85.0519
-98.6098 80.8117 4.7925
-149.826 -21.46 67.3437
-153.217 -21.7029 66.3239
-104.853 79.9578 2.17603
-102.445 80.1955 5.26897
-208.258 -1.82264 -49.302
-211.7 -0.42096 -47.5066
7.54055 77.6204 -41.3777
8.28399 75.7554 -44.6846
-10.7332 86.352 -16.5294
-15.009 85.705 -19.263
12.051 75.1055 -45.6661
-209.31 34.9142 -34.0773
-209.403 37.4956 -31.1375
-243.666 12.2957 -17.9925
-205.973 40.1086 -30.6792
-237.95 16.7355 23.0631
-240.122 13.5405 22.3945
-198.658 34.6896 41.3388
-44.0783 -51.8508 -69.4091
-47.9244 -52.1666 -68.8582
-62.9427 78.9646 -31.9928
-59.7048 79.9193 -30.3394
-198.884 37.6899 38.4804
-195.365 39.9931 38.3628
193.191 51.8489 -22.0509
191.205 51.6141 -24.577
-16.4966 73.9834 -47.2984
-15.7858 72.138 -50.0959
-160.693 -8.66506 67.1379
-158.234 -5.13402 68.2073
-159.174 -12.1802 67.0352
-155.577 -13.9387 67.7227
-181.214 -39.3654 -46.6254
-187.065 -34.892 -47.353
234.201 -8.19784 31.0077
231.367 -8.83933 33.3482
-185.721 -37.8036 -45.7381
-220.423 -36.3318 -21.8076
-223.2 -33.1946 -23.2996
-73.356 70.0217 46.7135
-199.227 43.3883 -31.6544
-202.391 40.5327 -32.9562
-78.2237 72.2495 42.129
-74.2861 72.1894 43.0938
-199.862 -47.1001 -25.2011
-196.405 -49.1625 -24.5825
-156.236 -38.5558 57.1748
-155.209 -34.5979 59.9803
-162.866 56.2902 -36.4406
-159.707 58.1157 -35.2675
245.94 -16.0776 8.95251
246.756 -13.0531 10.9097
-202.182 25.1303 -45.911
246.469 -16.6405 5.45951
-222.675 -40.729 -3.81053
-219.564 -42.6762 -4.53521
-225.904 36.4606 -12.9114
-224.076 36.2218 -16.8751
-228.9 -34.8683 10.6507
-231.376 -33.577 7.89259
-225.472 -37.7618 9.69424
119.517 74.8318 19.884
-172.162 -51.1028 -38.7774
115.32 75.6485 19.8281
47.93 12.2075 -85.5203
51.5151 10.7981 -85.4546
-180.218 -22.1665 57.2389
-179.903 52.3365 -32.2867
-165.439 0.853504 66.2749
-168.562 2.83327 65.2484
-181.016 -17.4079 58.5605
36.4512 -59.7492 63.3353
37.786 -57.2021 65.5524
-159.983 -59.939 -31.9021
-182.765 -21.7962 -56.3859
-184.306 -18.027 -57.0984
-11.919 15.3136 -86.5569
-188.59 -54.9975 19.1025
-192.466 -53.1209 19.6709
-145.908 9.35669 -71.0635
-143.715 12.1686 -71.1847
-174.319 52.4519 35.6722
-173.394 50.7427 38.5777
-187.149 39.746 -43.3147
-231.488 33.5046 -7.79805
-229.083 35.9778 -4.95734
-234.896 30.8775 -5.94686
241.404 7.72147 23.4447
239.892 10.8375 24.1019
240.609 13.4026 21.8297
-138.877 -61.8293 -39.495
-138.123 -60.1611 -42.2958
-141.493 -58.2472 -43.5908
-200.351 -41.1626 -33.693
-218.712 20.1213 -38.5055
-52.5888 9.20735 85.5607
-56.6789 -81.1824 27.57
-60.1936 -81.4602 25.7806
-152.575 56.1769 41.6904
-153.289 58.0869 38.6408
-189.409 -9.89095 -57.0428
-186.06 -8.87553 -58.5395
64.9163 -8.69241 84.5725
67.893 -7.04613 84.4394
-196.834 -37.2174 40.1926
-200.414 -34.6077 40.3581
-180.667 -48.2449 -37.6857
-174.531 -52.0915 -36.0708
-215.618 -38.5088 23.8567
-218.655 -36.4145 23.7615
-178.254 -50.9812 -35.4226
-121.358 48.0534 -60.264
-70.561 60.1412 59.3083
26.871 -68.2943 54.6945
24.8051 -66.5826 56.8808
-87.1711 -8.54439 -82.1016
-83.994 -6.22875 -82.7131
-27.4289 86.2173 -14.7806
-31.5203 85.7909 -16.1949
-74.4222 60.5804 58.2744
-117.422 49.1248 -60.3547
67.0664 -10.9468 -84.104
63.3162 -11.5557 -84.378
-122.19 44.8459 -62.4893
-75.4758 64.5982 -53.6063
-79.059 64.6816 -52.8684
-210.937 -46.4388 -11.8314
-207.911 -47.277 -14.7165
-70.3877 -66.9035 51.5882
-81.8488 62.1823 -55.2917
180.999 57.5745 -20.4522
187.788 54.7449 -20.7261
-58 -57.7605 -63.2129
-60.2567 -59.9446 -60.8779
185.024 56.5082 -18.962
-52.1821 5.08149 85.9349
170.803 -60.9398 -21.4147
166.658 -61.8361 -22.7994
-242.161 -11.2298 20.9365
-241.443 -7.71376 23.3976
231.622 25.8614 -22.5151
229.371 25.1811 -25.86
225.984 27.6883 -26.9256
-235.385 -18.9679 -24.5117
-234.848 -16.6286 -26.7393
-226.059 27.1724 -27.3704
-222.943 28.4662 -29.1284
-220.762 31.3819 -28.1502
-250.635 -7.2921 -0.178853
-176.019 45.3202 43.5527
58.5497 51.3717 -68.4489
59.6663 48.5456 -70.3667
128.077 68.3822 32.551
131.573 68.3031 30.9714
-176.89 47.6363 40.5452
-180.996 46.762 39.3262
18.7045 -86.4177 15.2694
142.019 69.3637 -21.5252
141.07 68.3982 -25.0848
23.2384 -86.1703 15.8922
181.098 -44.0243 42.3153
25.6365 -86.6619 12.3796
-189.021 21.6583 -53.8573
-189.443 17.9118 -55.0393
-212.327 -45.0139 14.08
-120.839 -46.9965 -61.2176
-24.322 -37.2654 79.2645
52.2744 18.5962 -84.0454
55.7902 16.8061 -84.1456
-25.2949 -41.1151 77.2995
-119.14 -6.50505 -77.2262
-115.758 -7.71914 -77.7423
-200.04 16.49 50.7237
-215.149 -43.2635 14.3211
-153.383 33.1174 61.3751
-156.802 31.4138 61.2128
-157.699 28.2699 62.4508
-79.9685 -83.4308 0.602675
-62.1582 73.5807 -43.0912
-61.6641 71.5151 -46.5193
-79.8043 -83.3553 -4.02141
-209.642 -18.6794 44.881
-58.7507 72.1705 45.9656
-205.671 -19.6704 46.6714
-191.283 -46.3877 33.3553
-190.152 -45.007 35.9379
-195.121 47.3352 29.0202
-192.216 -42.6374 37.4517
-97.604 19.9862 78.6016
-93.9878 21.1164 78.8453
-195.846 -41.8705 35.9859
-247.68 -8.80997 12.4839
188.064 -42.0214 40.5965
184.929 -44.2656 39.9697
-126.97 75.5507 7.89509
-123.285 76.103 9.56558
48.796 1.75239 86.31
130.441 15.6046 -73.6027
-179.639 46.5513 -40.3256
198.594 13.1827 52.3606
200.489 9.43652 52.2852
113.295 74.9015 23.7124
109.546 75.3642 24.3932
149.533 63.75 -30.6982
145.699 65.3584 -29.5517
-166.877 -45.667 -47.4246
129.83 19.368 -72.8368
-209.789 43.7122 -21.0928
-206.929 46.136 -19.315
126.455 20.2207 -73.3305
-61.8713 -0.182147 85.2953
-59.1305 2.72019 85.49
-53.8117 -1.87565 85.9416
[...]
POINT_DATA 10490
VECTORS F double
1.42694e-08 3.05334e-08 6.62261e-09
1.20802e-07 8.58479e-08 -3.99718e-08
1.45801e-07 7.01061e-07 3.29945e-07
5.61009e-08 -7.48308e-09 -2.56353e-08
2.77872e-07 2.438e-07 -3.43727e-09
1.73337e-07 1.85182e-07 -5.1164e-09
8.15063e-08 2.44925e-08 -7.01309e-08
-1.84755e-06 2.43876e-06 1.22262e-07
8.93884e-07 6.67672e-07 1.27029e-07
9.58391e-07 5.86678e-07 -2.38935e-08
1.16401e-08 7.03605e-08 -3.89642e-08
1.01537e-08 5.47228e-08 -1.82506e-08
1.04122e-07 3.33322e-07 1.70116e-07
-2.25016e-06 3.88127e-06 1.20679e-07
1.41437e-07 1.25392e-07 7.48664e-09
3.30103e-06 7.2157e-07 -7.83261e-07
4.20302e-06 8.13331e-07 -1.58398e-06
-1.20788e-08 2.27799e-08 1.18502e-08
-1.41526e-08 2.20988e-08 1.38349e-08
-2.70258e-05 9.33592e-06 1.17674e-05
-2.73302e-05 5.91569e-06 5.96347e-06
-3.26821e-06 2.0112e-06 -2.82993e-07
-2.98046e-06 1.53212e-06 -2.34294e-07
3.091e-08 2.09485e-07 -1.8161e-07
5.71924e-08 2.36878e-07 -2.18422e-07
1.68006e-08 1.63007e-07 9.72481e-08
2.31683e-09 1.39357e-07 8.57195e-08
-4.46236e-08 1.90711e-07 2.45103e-07
-1.86293e-07 1.4846e-07 1.55298e-07
2.46737e-07 2.04011e-07 -1.87507e-07
5.3302e-07 2.43154e-07 1.05926e-07
3.60606e-07 2.65111e-07 -7.33327e-08
1.703e-07 2.8459e-06 7.97887e-07
-1.83924e-07 1.67175e-06 4.7048e-07
-1.99723e-06 2.99869e-06 -2.27878e-08
1.5028e-08 2.79408e-08 5.89423e-08
7.31455e-05 1.1459e-05 2.15633e-05
7.85761e-05 1.32207e-05 2.57186e-05
4.00669e-08 3.1054e-10 -4.99318e-08
3.47264e-08 -2.82164e-09 -2.23201e-08
6.14155e-07 3.35007e-07 1.16283e-08
2.74312e-08 2.84983e-08 6.16192e-08
2.25772e-07 2.74825e-06 5.13459e-07
-1.61947e-06 3.80453e-06 -3.55932e-07
-2.40917e-08 1.42673e-08 -1.15259e-08
-4.06359e-08 3.64444e-08 1.59631e-08
1.23429e-06 8.39958e-07 -4.94787e-08
1.12683e-06 1.4131e-06 2.00773e-07
-4.87642e-08 9.94088e-08 -6.58826e-08
-4.22353e-08 1.11687e-07 -7.8936e-08
5.14476e-08 1.39004e-07 -5.23011e-08
6.68891e-08 1.47651e-07 -4.90257e-08
9.2322e-07 2.18654e-06 6.45844e-07
1.0337e-06 2.12774e-06 7.51103e-07
-3.84532e-08 9.41534e-08 1.48489e-09
-2.69764e-08 7.11557e-08 5.03565e-09
5.83422e-08 9.40855e-08 1.01107e-07
1.76545e-07 3.53201e-08 -6.65754e-08
-2.02093e-08 1.31792e-08 -1.93718e-08
-1.9196e-08 8.06885e-09 -1.78384e-08
-2.50955e-06 3.15471e-06 -2.39674e-07
-2.31817e-06 4.02434e-06 -1.73407e-07
1.40001e-08 8.42079e-08 7.07995e-08
-3.80478e-08 5.63908e-08 9.81057e-08
-1.03616e-08 1.20133e-08 1.48748e-09
9.82738e-06 5.53228e-06 2.52321e-06
-1.99449e-08 3.57262e-08 2.44298e-08
-1.42708e-07 4.78428e-06 -6.94037e-08
3.35753e-07 3.88256e-06 -1.82425e-07
-1.00451e-06 6.5983e-06 5.48236e-07
-3.17127e-06 5.3353e-06 1.14442e-07
-2.20693e-06 4.22735e-06 1.00347e-08
-1.39263e-06 2.30396e-06 -2.57965e-07
5.71987e-09 4.34571e-08 5.4563e-08
2.70432e-09 1.36959e-08 9.6427e-10
-3.73888e-09 4.7495e-09 -1.05181e-08
4.21509e-07 3.66897e-07 -2.04169e-07
1.00607e-06 1.76194e-06 -2.30758e-07
5.66146e-07 5.36056e-07 -3.11277e-07
1.33155e-09 2.79258e-08 2.95946e-08
-1.03319e-08 1.13244e-08 1.13966e-08
-2.99992e-09 1.16446e-08 2.38683e-09
2.00302e-08 1.50298e-08 3.90452e-08
2.71612e-08 6.24911e-09 4.26128e-08
1.41611e-08 3.48665e-09 2.60164e-08
1.66054e-08 1.74823e-08 3.73359e-08
3.95872e-08 3.36339e-08 8.32396e-08
2.38425e-07 2.78719e-07 -7.8039e-08
4.10749e-08 2.87702e-08 7.79478e-08
-7.79001e-07 4.6262e-06 -3.74239e-07
2.08992e-06 2.55084e-06 -2.2569e-07
1.96505e-06 2.95482e-06 -4.40814e-07
-2.3086e-08 2.044e-07 1.87736e-07
-6.72532e-08 2.99658e-07 2.66606e-07
4.40169e-06 2.53381e-06 1.34735e-06
4.93257e-06 2.24083e-06 6.82985e-07
4.59562e-07 3.25576e-07 -3.79614e-07
1.20815e-06 5.36407e-07 -2.89093e-07
2.18367e-05 1.58861e-05 1.61932e-05
1.78902e-06 2.4e-06 3.23841e-07
1.56047e-06 1.18849e-06 8.97344e-08
2.14056e-05 1.7454e-05 1.94503e-05
-1.08085e-06 3.45417e-07 -6.95107e-08
-1.14154e-06 4.27879e-07 -1.59813e-07
4.36416e-09 1.31998e-08 3.70495e-08
5.52796e-10 1.82979e-08 4.04418e-08
9.62445e-07 5.18153e-07 8.73701e-08
9.66176e-07 6.13069e-07 -2.1085e-08
5.79874e-08 8.15915e-08 -1.88296e-08
3.98324e-05 1.72561e-05 -2.58372e-05
3.96998e-05 1.70078e-05 -2.82128e-05
3.39142e-08 8.40902e-08 1.51939e-08
4.34127e-08 -2.22716e-08 2.71005e-09
4.35838e-07 3.73383e-07 2.25538e-07
2.20692e-07 1.41817e-07 1.01262e-07
6.29715e-07 3.42437e-07 -2.62307e-07
7.54102e-07 3.60769e-07 -3.23984e-08
-4.64836e-09 1.12527e-07 -1.10471e-08
1.18946e-07 1.55053e-07 -5.85268e-08
4.06125e-07 2.16256e-06 -7.23664e-07
1.15252e-06 9.30694e-07 2.40144e-08
8.21245e-09 -2.11209e-09 -1.10884e-08
-9.42182e-10 -8.25311e-10 1.18222e-08
2.37863e-05 6.49509e-06 6.99395e-06
2.48935e-05 7.98038e-06 1.04493e-05
-4.29089e-08 5.13375e-08 -1.05911e-07
-2.83756e-08 6.64694e-08 -1.2985e-07
8.35869e-07 8.82372e-06 2.13239e-06
1.27531e-07 1.53142e-07 -2.17584e-07
1.25142e-07 1.77465e-07 -2.34214e-07
4.31848e-08 1.50201e-07 1.72669e-07
8.86337e-08 2.38994e-07 2.68399e-07
2.14748e-06 6.8035e-07 -3.43077e-07
-7.16104e-07 6.20336e-06 9.91912e-07
-2.18169e-06 4.03412e-06 6.70631e-07
7.63575e-07 1.57218e-07 -2.11269e-07
2.62303e-07 5.80201e-07 3.58289e-07
3.12254e-07 8.62505e-07 5.09015e-07
-6.38936e-08 8.62467e-08 -1.40311e-07
-6.24624e-08 6.31139e-08 -1.04547e-07
1.22559e-07 2.27931e-07 -1.65938e-07
2.83663e-08 1.43897e-07 -9.85825e-08
-1.44774e-05 1.88519e-05 -2.80676e-05
-2.44967e-05 1.47594e-05 -1.92349e-05
2.45885e-06 1.1005e-06 1.38349e-07
2.15971e-06 1.24637e-06 -1.47739e-08
-6.1459e-07 1.50981e-07 9.24919e-09
-1.3866e-06 3.53073e-08 4.2966e-07
-1.3225e-06 1.31965e-06 -2.12592e-07
9.24041e-07 9.68433e-07 8.34681e-08
2.79588e-07 2.74764e-07 3.81845e-08
4.55196e-05 2.47605e-05 3.61186e-05
-6.36594e-06 3.52408e-06 2.01541e-06
5.47314e-05 2.14324e-05 3.24544e-05
-2.77871e-09 8.52385e-09 -1.02441e-08
-1.85452e-09 6.64234e-09 -7.66304e-09
0.00011699 2.47117e-05 5.17301e-05
0.000104456 2.81883e-05 5.45834e-05
-7.20488e-10 -5.27534e-10 1.29423e-09
-1.28039e-09 7.22885e-10 2.73044e-09
3.74757e-07 5.32982e-07 -3.85639e-08
3.37373e-07 5.79402e-07 -1.00224e-07
3.42662e-05 2.49379e-05 -2.98168e-05
3.8206e-05 2.37819e-05 -3.019e-05
1.88167e-07 7.51709e-08 -9.72204e-08
-4.25158e-09 -1.79244e-09 7.13109e-09
2.37859e-07 1.86462e-07 -1.91137e-07
1.59177e-08 1.24391e-07 -1.02483e-07
2.2117e-07 3.57784e-08 -8.11702e-08
2.22952e-09 1.29645e-07 3.57072e-08
5.1189e-07 2.73318e-07 1.08491e-07
5.55708e-07 2.98857e-07 3.66099e-08
9.71338e-08 1.3606e-07 1.28853e-07
8.78524e-08 3.67742e-09 -5.24711e-08
2.34909e-06 3.59175e-06 -2.61983e-07
2.49454e-05 3.85767e-06 -2.20783e-06
-2.96593e-08 2.70463e-07 7.8108e-08
-6.13287e-08 3.63064e-07 1.01459e-07
2.17613e-05 3.59216e-06 -3.6145e-06
2.35885e-05 3.94315e-06 -3.86499e-06
4.64482e-08 9.04709e-08 -2.73655e-08
6.40743e-08 1.78418e-07 -3.65386e-08
7.46534e-05 3.80344e-05 7.30145e-05
2.37096e-05 3.47539e-05 5.94578e-05
0.000174012 6.29672e-06 1.90599e-05
0.000158905 7.40995e-06 1.7809e-05
2.44821e-05 3.24305e-05 5.41284e-05
2.88995e-07 2.12725e-07 6.26818e-10
8.02986e-07 4.36479e-07 -1.35542e-07
9.97275e-08 1.71275e-07 -4.8307e-08
7.27697e-07 5.49074e-07 1.19688e-07
6.69848e-08 1.96082e-07 -5.76724e-08
7.90214e-08 1.65233e-07 3.8288e-09
4.0356e-07 -1.51655e-07 3.64699e-07
4.36948e-07 3.23812e-07 -2.7587e-07
4.02458e-07 4.06746e-07 -3.42441e-07
4.92356e-05 1.45401e-05 2.40285e-05
5.30388e-05 1.35535e-05 2.29236e-05
6.61604e-07 -1.95706e-08 4.37817e-07
4.97222e-07 2.80948e-07 1.71241e-08
-8.18301e-08 3.81991e-08 2.04578e-09
-1.14135e-07 6.13536e-08 2.01359e-08
5.19513e-05 4.0978e-05 6.18787e-05
2.79958e-05 3.80796e-05 5.37545e-05
7.21781e-07 4.04957e-07 2.63772e-07
8.81342e-07 3.37395e-07 2.75721e-07
2.03996e-07 1.55494e-07 8.75566e-08
3.1511e-07 3.5821e-07 1.62354e-07
9.85366e-08 9.44803e-08 -1.26656e-07
1.11216e-07 7.33717e-08 -1.07853e-07
1.6101e-09 1.07199e-08 1.34489e-09
1.18377e-09 1.04883e-08 1.77388e-09
8.51472e-08 6.02714e-08 -9.21456e-08
3.5314e-09 2.26059e-09 -8.13625e-09
-9.63355e-10 4.30482e-09 -5.00333e-09
2.5976e-05 1.2401e-05 -1.35945e-05
7.43719e-07 5.80165e-07 2.22146e-07
7.65514e-07 5.49317e-07 1.00035e-07
2.27367e-05 9.00801e-06 -1.02797e-05
2.54743e-05 1.23166e-05 -1.5256e-05
4.07426e-09 1.31383e-08 -2.85118e-08
5.44165e-10 6.99707e-09 -1.45247e-08
7.03468e-08 2.608e-07 1.99405e-07
2.01457e-07 2.42204e-07 2.03532e-07
1.53957e-06 1.03794e-06 7.60888e-07
1.90885e-06 9.30643e-07 4.75255e-07
2.04779e-09 7.38272e-09 6.36704e-09
6.86388e-10 7.90202e-09 7.55162e-09
3.13247e-07 2.24105e-07 -4.62213e-08
6.3236e-10 3.15286e-09 6.12239e-09
-2.71953e-08 1.90902e-08 -9.48189e-09
-2.06252e-08 9.46265e-09 3.32078e-08
2.93359e-07 2.24357e-07 5.15758e-09
3.77649e-07 2.93727e-07 1.65329e-08
1.25439e-08 -1.84198e-09 2.69754e-08
-1.82633e-09 1.11217e-08 4.07554e-08
2.15906e-09 -5.4559e-09 -1.51012e-08
-1.90381e-06 1.92988e-07 6.74712e-07
5.06004e-08 -1.98153e-08 -1.39018e-09
-1.97884e-06 2.40974e-07 4.89676e-07
5.46087e-07 1.5969e-06 2.65418e-07
4.69685e-07 1.0949e-06 1.73018e-07
1.12009e-07 3.07539e-07 1.62275e-07
1.43515e-06 4.99728e-07 -1.68988e-07
4.6133e-07 2.09997e-07 1.38287e-07
4.72275e-07 2.90259e-07 1.3677e-07
1.56102e-07 3.33309e-07 1.58156e-07
-3.84421e-08 1.99701e-07 1.91102e-07
-1.84466e-08 2.11702e-07 1.86035e-07
4.18826e-08 1.077e-08 -4.59495e-08
6.8168e-08 6.19968e-08 -5.10167e-08
2.14227e-07 1.17598e-07 -1.21789e-07
4.41683e-07 8.53688e-06 1.5029e-06
7.47352e-09 9.45838e-09 3.62658e-08
2.51675e-09 8.1787e-09 2.51015e-08
1.01915e-06 7.22677e-07 -1.61035e-07
8.22486e-07 9.81258e-07 -3.55574e-08
1.59225e-06 9.90278e-07 -5.03481e-07
1.20535e-06 7.9549e-07 -3.8305e-07
1.00324e-06 9.49947e-07 3.40984e-07
3.3576e-07 2.83531e-07 -2.08637e-09
3.10909e-07 2.52258e-07 7.17436e-08
2.65239e-07 2.09636e-07 -1.94193e-07
-1.22341e-08 2.05474e-08 8.65672e-09
-8.30625e-09 2.57189e-08 -1.44151e-09
-8.71552e-09 2.51995e-08 -3.71099e-09
7.2599e-08 2.77493e-08 -7.46962e-08
1.50763e-08 5.34317e-08 -8.20276e-08
7.31049e-08 1.08822e-07 -1.74463e-07
-9.97727e-09 6.26461e-08 -6.92723e-08
1.24953e-07 1.92371e-07 1.36312e-08
3.28122e-06 5.337e-06 -3.2741e-07
2.64121e-08 1.98419e-08 6.50725e-08
1.95862e-08 1.92152e-08 6.63121e-08
1.22823e-06 3.12532e-07 1.29196e-07
3.00139e-06 1.01502e-06 -6.81004e-08
1.35627e-07 2.36854e-07 -9.62059e-08
1.81494e-07 1.4025e-07 -9.18887e-08
8.19531e-08 6.08078e-07 5.47964e-08
-7.34899e-08 9.97118e-07 9.04387e-08
2.13769e-08 7.09321e-08 7.84982e-08
1.60483e-08 7.20556e-08 7.15456e-08
2.12572e-08 2.19881e-08 -4.06252e-08
1.88308e-08 3.37826e-09 -1.60344e-08
1.59574e-08 3.08892e-09 2.26423e-08
1.79857e-08 1.16902e-08 3.81775e-08
1.52809e-08 1.6477e-08 -3.31287e-08
6.26957e-06 3.57899e-06 1.30808e-06
2.27103e-05 1.64033e-05 -1.33256e-05
-3.74357e-09 2.26768e-07 2.83379e-07
-1.18472e-07 1.83818e-07 2.21496e-07
7.94142e-07 1.57217e-06 -2.66848e-07
6.72406e-07 1.90089e-06 -2.26745e-07
0.000127933 8.29622e-06 1.9326e-05
0.000116254 9.54775e-06 2.28757e-05
2.10344e-05 1.43375e-05 -1.1616e-05
6.36503e-06 4.479e-06 2.12951e-06
-9.26197e-07 7.53077e-07 -1.88441e-07
-9.66667e-07 6.84374e-07 -1.82533e-07
4.23e-06 3.54337e-06 1.53026e-06
2.01154e-05 1.43792e-05 1.38602e-05
1.83256e-05 1.17515e-05 1.10222e-05
1.55246e-09 -6.23039e-09 2.10672e-08
-2.01681e-08 1.47327e-08 -1.24451e-08
-1.34356e-07 6.65018e-08 6.3801e-08
1.72493e-05 1.17086e-05 1.00415e-05
-2.12898e-07 6.19905e-08 -5.61658e-08
-1.67459e-07 7.8202e-08 2.07996e-08
-4.47404e-07 2.83652e-07 -2.08927e-07
-2.73473e-07 1.62595e-07 -1.26962e-07
-2.08686e-07 7.87931e-08 -1.44945e-08
1.33592e-06 4.88548e-06 -1.8957e-07
1.02418e-08 5.95827e-09 -6.95296e-09
1.06509e-08 7.94494e-09 -1.20177e-08
-1.26917e-08 3.10079e-08 -1.34041e-09
7.77476e-09 2.16916e-08 1.69757e-08
-5.80228e-09 1.46988e-08 9.57607e-09
-1.63072e-08 2.98103e-08 1.13182e-08
-2.00956e-08 2.58481e-08 5.93126e-09
-3.03643e-08 5.30289e-08 -5.33582e-09
4.26091e-08 2.6537e-09 -4.74683e-08
2.57865e-07 3.01896e-07 3.8963e-08
2.61487e-07 1.49234e-07 -9.91872e-08
1.94471e-07 1.81916e-07 1.60815e-08
-2.18719e-08 9.23397e-08 -1.26471e-08
9.33772e-07 4.20283e-07 2.46989e-08
-4.43119e-06 4.21874e-06 2.70216e-06
-3.21018e-06 4.30718e-06 2.63824e-06
-1.04149e-06 4.48267e-08 4.07538e-07
-9.11574e-07 -5.14057e-08 5.87491e-07
1.41396e-06 6.55807e-07 -1.5252e-08
1.29605e-06 2.59034e-07 4.22284e-07
-1.48342e-08 1.00421e-08 5.90605e-08
-5.39993e-07 -2.54453e-08 -5.18187e-07
-9.27646e-07 6.02773e-08 -4.7434e-07
-4.18883e-09 7.0841e-10 4.58948e-09
-1.18533e-08 6.82867e-09 1.3315e-08
-1.09936e-08 -7.69524e-10 -2.60449e-09
1.57193e-07 4.70268e-07 1.2157e-07
1.31014e-07 4.57418e-07 9.36514e-08
-2.60556e-08 2.16132e-08 2.09915e-08
3.37447e-07 2.34554e-07 -2.61616e-07
-2.71432e-08 2.79344e-07 1.30311e-07
-1.42403e-06 2.23213e-06 3.85454e-07
-1.36673e-06 2.08621e-06 3.05728e-07
-1.31883e-07 2.57561e-07 1.31711e-07
-5.61266e-08 9.98934e-07 -7.35433e-08
6.93728e-09 1.0684e-06 -1.07347e-07
3.08741e-07 5.56581e-07 -3.18718e-08
-2.50779e-08 2.61278e-08 3.28062e-08
1.53551e-06 2.28376e-06 -7.62483e-07
1.67076e-06 1.74478e-06 -3.71424e-07
7.74249e-09 1.92781e-06 -8.70278e-07
-3.21741e-08 3.7055e-09 -9.68179e-09
3.18079e-05 1.85498e-05 2.60573e-05
2.61125e-05 1.81085e-05 2.36008e-05
8.695e-09 -4.27027e-10 -1.2273e-08
5.12587e-09 7.55243e-08 3.43654e-08
3.5789e-05 1.98245e-05 -2.55259e-05
1.69521e-08 1.30746e-07 6.42516e-08
2.50438e-08 2.73797e-08 5.56607e-08
4.09957e-08 2.33507e-08 5.58e-08
3.5532e-07 3.51199e-07 -2.80353e-07
2.7039e-08 2.36854e-08 4.3955e-08
2.76225e-06 5.11171e-06 -8.79824e-07
3.28686e-06 4.34678e-06 -6.84455e-07
1.39991e-08 6.52754e-08 8.52772e-08
-1.19897e-08 7.00245e-08 2.02982e-08
-2.6769e-08 1.43299e-08 3.00151e-08
-1.39306e-08 3.29354e-10 8.25544e-09
6.74043e-06 1.43658e-06 -4.75433e-07
8.41194e-06 2.07955e-06 -3.27121e-06
-2.37194e-06 2.11054e-06 1.21327e-07
-1.92203e-07 4.24251e-07 4.82437e-08
2.1329e-06 8.54054e-07 -1.77357e-07
-6.16346e-08 8.26446e-08 7.81348e-09
-2.54047e-08 9.67511e-08 -5.53478e-09
-1.91774e-06 1.56956e-07 6.26018e-07
-2.13672e-06 4.56561e-07 -2.35766e-07
-9.8472e-07 2.25622e-07 -1.18713e-07
-1.15545e-06 1.29257e-07 -4.1158e-07
-7.07982e-08 9.51804e-08 -6.11526e-08
-4.9215e-07 4.11573e-07 2.03997e-09
4.67503e-07 1.583e-07 -2.41218e-07
4.68667e-07 1.75615e-07 -1.9525e-07
-5.15952e-07 4.25743e-07 8.46753e-09
6.68375e-07 4.50143e-06 6.89716e-08
1.56154e-06 3.93913e-06 6.89583e-09
1.06329e-06 3.65591e-06 1.61301e-07
1.3419e-08 1.5061e-08 5.46099e-08
6.7311e-06 1.44846e-06 1.0503e-07
7.46327e-06 1.59609e-06 -1.06681e-06
-1.1898e-06 6.25839e-06 -1.09459e-06
1.2902e-08 -2.1597e-09 1.52356e-08
1.7948e-06 4.13865e-06 4.89144e-08
3.99074e-06 6.79406e-06 3.45858e-06
4.52481e-06 5.56946e-06 2.43396e-06
7.7154e-06 6.61873e-06 3.12098e-06
1.14082e-07 4.04525e-07 7.10105e-08
8.7396e-08 5.12991e-07 5.33145e-08
-3.34232e-07 1.50719e-06 1.74234e-07
-1.0676e-07 8.72714e-07 1.07434e-07
6.38822e-07 2.79858e-07 1.32783e-07
3.51831e-07 5.04706e-07 1.06473e-07
1.8159e-06 6.15527e-07 -2.38753e-08
2.30774e-06 9.31982e-07 2.87559e-07
-3.93231e-08 8.05978e-10 2.98615e-08
-3.35253e-08 -2.85886e-09 1.48976e-08
7.47733e-08 1.76733e-08 -7.90835e-08
5.917e-08 7.78542e-09 -4.80388e-08
-2.192e-08 7.22842e-08 1.08836e-07
1.58167e-08 5.89175e-08 1.15538e-07
-1.46025e-08 6.08814e-08 1.01544e-07
2.57031e-07 9.8974e-08 1.92702e-07
3.79559e-07 2.29712e-07 -5.48821e-08
5.29059e-07 2.49643e-07 1.30774e-07
2.32816e-08 7.20342e-08 -7.89573e-08
1.26235e-08 7.33175e-08 -7.51715e-08
-2.57914e-08 5.59811e-07 -3.26438e-07
4.51812e-08 3.32031e-07 -1.99284e-07
-7.27368e-07 3.1902e-06 -5.64175e-07
-1.25208e-06 2.5175e-06 -4.58187e-07
-1.34477e-08 6.04543e-08 -5.3804e-08
2.03253e-07 4.35683e-09 -4.23164e-08
-2.16431e-08 5.46979e-09 1.24825e-08
1.32018e-08 3.17065e-08 -4.93619e-08
-1.19154e-06 3.81283e-06 -1.6572e-07
-7.27317e-08 3.80931e-07 -2.82969e-07
-1.35746e-07 3.32378e-07 -2.34575e-07
1.93553e-05 2.34905e-05 2.32106e-05
1.55733e-06 7.859e-07 1.08906e-06
6.9352e-05 5.93783e-06 6.32393e-06
7.7027e-05 6.0929e-06 -2.6766e-06
6.46918e-05 6.22571e-06 -9.13173e-06
7.46367e-05 5.89114e-06 -3.42945e-07
1.78016e-06 7.75622e-07 9.65175e-07
1.85934e-05 2.02177e-05 1.92739e-05
1.66967e-05 2.04208e-05 1.80179e-05
4.41432e-08 2.77925e-08 -7.81058e-08
-2.47827e-08 5.61683e-09 -2.83295e-08
-1.19323e-08 4.62776e-09 -5.13668e-08
4.95783e-08 1.73504e-08 -6.47356e-08
2.25455e-08 7.88667e-09 -3.16631e-08
1.33864e-07 2.32214e-07 8.1153e-08
1.02106e-07 3.38845e-07 1.99001e-07
-6.5054e-07 8.80483e-08 2.33907e-07
-1.64735e-05 7.61234e-06 -7.68862e-06
-1.75849e-05 7.6217e-06 -8.13378e-06
-8.18943e-07 8.48143e-07 -2.35013e-07
2.05268e-07 1.97276e-07 -1.60086e-07
3.49366e-07 3.64603e-07 1.06067e-07
1.83964e-07 4.93566e-07 -2.62856e-07
1.73691e-07 2.10594e-07 -1.41859e-07
1.24332e-07 4.49813e-09 7.40481e-08
1.01942e-07 5.37941e-08 1.30037e-07
6.44419e-08 3.23357e-08 8.4141e-08
1.1228e-06 1.50092e-06 -1.02502e-07
1.24763e-06 1.69315e-06 -1.05438e-07
-2.18765e-05 2.00856e-05 -3.28114e-05
-1.10502e-07 2.3045e-07 4.38725e-09
3.45842e-08 6.68326e-09 2.2597e-08
-2.80975e-08 6.80982e-08 1.2391e-07
5.97455e-07 1.78306e-06 -1.898e-07
6.33837e-07 1.34929e-06 -1.64709e-07
-6.274e-08 1.03187e-07 -2.52351e-09
1.1111e-07 1.77096e-07 4.39259e-09
-1.23489e-07 1.84473e-07 -1.40435e-08
-1.73084e-05 1.94885e-06 5.17226e-07
3.2968e-09 1.23433e-07 -5.9584e-08
-4.03375e-09 1.05226e-07 -5.22327e-08
-1.2038e-05 7.37054e-07 -8.3015e-07
7.4499e-07 6.73691e-07 -2.26532e-07
-1.51133e-05 3.09693e-06 2.37934e-06
-1.07335e-08 9.79103e-08 2.42815e-09
1.46309e-06 5.63547e-07 8.60967e-08
1.63477e-06 4.42435e-07 4.06586e-07
2.29506e-09 6.42633e-08 -3.2964e-08
-8.69277e-09 7.62899e-08 2.33662e-08
1.08663e-07 1.93356e-07 -1.1453e-07
1.74346e-08 -1.04632e-08 -1.67809e-08
1.72193e-08 8.7927e-11 -3.51228e-08
4.24186e-07 4.32647e-07 -1.09418e-07
5.22351e-07 3.65426e-07 6.57158e-08
2.44502e-06 1.87209e-06 7.17073e-07
2.90169e-05 2.03865e-05 2.59951e-05
2.2765e-05 2.02205e-05 2.41019e-05
1.87966e-08 8.91752e-10 1.35025e-09
-1.54923e-08 3.51714e-10 -1.77638e-08
2.3675e-05 2.03147e-05 2.25581e-05
3.41593e-07 9.29596e-08 1.46131e-07
1.78884e-07 1.36784e-07 1.688e-08
-2.06214e-08 5.35708e-08 -9.87819e-10
-1.03377e-07 2.07089e-07 1.85933e-07
-8.97446e-08 2.27832e-07 1.87027e-07
-3.19463e-07 3.3065e-06 2.86122e-07
-1.03558e-07 4.50996e-08 4.1687e-08
-2.33836e-08 1.20218e-07 9.50624e-08
8.47703e-06 2.83069e-05 -4.9462e-05
1.1696e-05 2.79676e-05 -4.4285e-05
-4.66164e-07 3.28875e-06 2.98301e-07
1.03216e-06 1.13425e-06 -2.16132e-07
-1.34847e-07 2.84794e-06 3.81012e-07
-2.49116e-09 -3.56019e-09 -2.12829e-08
4.53086e-07 7.89251e-07 -1.69947e-07
9.75169e-06 2.84343e-05 -2.80771e-05
4.58045e-07 6.43845e-07 -8.74034e-08
8.56172e-07 5.65287e-07 5.51254e-07
5.65612e-08 9.97345e-08 -5.01171e-08
-3.13068e-08 4.53385e-08 2.95425e-08
9.90852e-09 2.54444e-09 -4.81466e-09
-4.34071e-09 3.7529e-09 -2.36807e-08
-2.0424e-05 1.71909e-05 -1.69555e-05
-2.89715e-08 5.99105e-08 9.3905e-08
1.1693e-06 4.50166e-07 -1.27828e-07
-5.87335e-09 -2.91008e-09 1.88986e-09
6.80259e-08 1.30272e-07 1.42804e-07
2.21607e-08 6.90835e-10 2.23347e-08
1.16883e-05 2.06999e-05 -1.5488e-05
2.52816e-07 9.17314e-08 -1.04336e-07
1.24385e-05 2.10757e-05 -1.75297e-05
0.000248091 -1.26269e-06 -2.22771e-05
0.000230118 1.11324e-06 -2.92348e-05
1.60512e-08 9.63306e-08 9.27069e-08
0.000158536 1.61875e-05 -4.85647e-05
1.42464e-08 1.08563e-07 8.91191e-08
-5.7628e-08 7.2196e-08 1.2626e-08
-6.65168e-08 5.2787e-08 -7.0341e-09
4.28215e-08 1.49294e-07 1.26357e-07
9.69485e-07 1.00399e-06 -3.17789e-07
1.47125e-08 -4.12194e-11 -9.04144e-09
3.28573e-07 2.50676e-07 -7.83304e-08
3.07433e-05 2.77327e-05 -3.05333e-05
3.29741e-07 1.78347e-07 7.29396e-08
3.33643e-07 1.45067e-07 1.28995e-07
3.37417e-07 1.70216e-07 1.09328e-07
3.1961e-05 1.98562e-05 2.73419e-05
-9.55551e-08 5.11409e-08 -2.00686e-08
-8.39561e-08 4.4069e-08 -4.94595e-08
-1.77284e-07 1.05631e-07 -9.92742e-09
-3.08911e-07 2.59012e-07 -6.74499e-08
3.53944e-05 2.30355e-05 3.15701e-05
6.77776e-06 3.93959e-06 -1.33569e-06
3.31093e-06 3.95896e-06 -1.74763e-06
3.71512e-06 4.18545e-06 -1.72034e-06
0.000165054 5.34581e-06 -2.03247e-05
0.000153543 6.13269e-06 -1.86781e-05
4.19452e-06 3.95131e-06 -1.63276e-06