# vtk DataFile Version 2.0
S, Created by Mohamad Ibrahim Cheikh
ASCII
DATASET UNSTRUCTURED_GRID
POINTS 10490 double
-223.577 20.3384 -34.7914
-223.732 23.2835 -32.7643
-130.493 -29.3201 69.2786
-194.385 -37.8826 -41.0223
-207.477 29.5029 40.042
-235.88 27.3947 13.4743
-191.276 -39.7123 -41.0809
14.4374 -3.16951 87.7977
-191.087 39.2087 -41.6682
-193.429 36.9211 -42.4281
-251.147 3.21116 -3.38013
-251.007 5.46146 -0.714568
-204.328 29.2931 -42.1242
18.6433 -1.57941 87.7437
-201.232 30.3617 -43.1792
-151.386 68.7303 -14.6396
-148.611 69.938 -12.1965
241.381 21.7602 -11.7088
240.378 24.3442 -8.78248
40.1049 72.8208 -47.3731
43.9224 72.1221 -48.0231
45.4866 -3.23412 -86.4883
49.3424 -1.53605 -86.2761
-145.563 -45.4983 -55.4956
-142.059 -46.9233 -55.4207
-191.797 -27.3671 49.9128
-189.472 -30.0449 49.458
-64.339 -67.8388 51.3332
-66.4779 -66.0184 53.334
-121.233 -41.6831 -64.8623
-205.501 44.6024 24.172
-208.439 41.8661 25.923
-64.8775 -22.6403 81.9518
-61.2365 -23.9543 81.9212
44.3467 4.13526 86.5224
-201.399 -44.9179 27.5759
-54.1814 82.1649 -25.1699
-51.235 81.7562 -27.1759
-109.542 -78.4118 -11.2477
-105.515 -79.2424 -10.0779
-195.508 42.6337 35.3084
-200.947 -43.0035 30.838
-54.4335 -15.3711 84.5279
3.5418 8.21721 87.6067
226.255 36.0723 -13.2452
223.494 37.2783 -15.4584
-147.018 22.4073 -67.7914
-143.852 23.6522 -68.1986
-167.021 -43.0252 -49.7747
-163.502 -43.4803 -50.7989
-215.267 -7.16064 -44.9366
-215.168 -3.16493 -45.4511
-105.65 -17.6566 77.8825
-104.114 -21.1916 77.2516
-247.959 -12.5243 7.72451
-247.222 -12.2255 10.5722
-226.225 -18.8478 33.5121
-129.027 -40.8344 -63.5478
238.447 4.07538 -27.6832
236.191 2.11793 -30.1591
30.7247 -3.78382 -87.2589
26.7486 -2.06612 -87.4765
-224.961 -22.5412 32.2493
-47.66 -75.8727 41.343
-235.553 -26.7708 15.3058
-110.495 51.0969 -60.3186
-237.919 -25.2897 13.1985
-16.8327 -1.55223 -87.789
-20.0226 -4.07471 -87.626
25.3132 7.40709 -87.2393
27.4261 3.61888 -87.4003
25.4888 1.64723 -87.5314
45.9914 -6.35908 -86.2821
-242.159 -16.9755 16.6252
249.587 -5.36919 -9.40944
249.111 -2.30259 -11.8806
-169.145 48.1604 43.8386
30.4412 -13.5067 -86.3025
-165.522 47.9285 45.7447
-244.371 -14.4435 14.9725
243.986 6.92782 20.1941
244.544 3.56423 20.2422
-218.53 -34.253 26.9075
-142.146 -69.411 21.2686
-139.63 -70.7398 18.786
-221.096 -32.0566 27.0475
-157.971 -59.8004 33.3569
-205.041 32.4581 39.2843
-154.32 -61.3641 32.601
21.3233 7.30123 87.3786
-119.102 18.474 75.2729
-116.43 20.5518 75.246
25.5783 -59.035 64.6434
29.1137 -57.6651 65.6884
-134.627 54.9946 -50.0061
-136.943 52.5172 -51.8647
-177.098 57.9132 23.4559
-176.715 59.3828 19.8591
-70.4339 64.9371 -54.0352
-62.7905 16.9173 -83.5171
-66.4028 16.9235 -83.1731
-66.8962 66.4522 -52.7277
124.476 57.7408 50.1302
121.044 58.3468 50.4564
-132.441 -69.8472 26.793
-132.815 -68.0013 30.9868
-188.88 35.1115 46.297
-185.132 37.2797 46.4548
-232.727 13.1728 -30.6498
-60.6321 74.8022 41.2135
-61.9215 76.3293 38.058
-231.928 16.797 -29.6019
-175.272 -46.957 -42.1659
-178.796 -11.2356 60.8598
-181.802 -8.37773 60.2268
-195.831 53.7475 12.6507
-198.386 52.0605 14.6698
-195.137 -6.40567 -55.1455
-196.112 -2.36663 -55.043
-155.761 25.0143 64.4044
-159.482 22.4717 64.2266
-196.211 -54.5515 -7.39846
-193.182 -56.048 -5.79669
-91.5715 75.0992 -32.8251
-87.608 75.4723 -33.2906
-39.2308 -78.9682 -36.3262
-42.732 -77.6555 -38.6014
-35.7436 20.3825 -84.6885
-119.252 -59.08 -50.1247
-116.056 -58.3927 -51.8195
-103.566 -58.9136 54.406
-107.461 -57.2235 55.2779
-176.117 46.8956 -41.8013
26.9038 13.8956 -86.3846
23.8236 15.7318 -86.1802
-175.613 44.5873 -44.4996
-89.4481 -39.5991 72.0857
-93.3185 -38.4661 72.0985
-1.70626 -75.0138 -46.0063
2.63276 -75.2497 -45.614
-158.024 -33.2002 -59.8705
-154.737 -36.6345 -58.911
26.4356 72.5952 48.8711
28.8429 70.5635 51.6036
-166.622 38.7936 53.292
-169.027 36.4168 54.0366
126.652 60.2613 46.3542
125.019 62.2374 44.2373
55.9297 20.2511 83.3722
-158.164 12.6301 67.2442
-155.549 9.85273 68.4447
-44.6139 72.8009 -46.9077
71.0325 53.0352 -65.6775
-41.9722 74.487 -44.4973
222.064 -27.8284 -30.5323
225.276 -26.0125 -29.2251
-17.9401 78.667 -38.9371
-20.7191 77.415 -41.2111
247.477 -7.06407 13.9944
245.671 -9.07241 16.5072
-182.898 19.8468 57.0492
-181.355 22.6889 56.5907
-56.1387 68.1863 52.0459
-53.8321 70.0297 49.8503
-221.676 26.3859 -32.1173
245.289 -12.7014 14.7128
-123.34 -44.6628 -62.3436
-128.466 -46.9024 -59.3601
-126.786 -44.2474 -61.7911
-219.064 -11.0552 41.791
-206.377 49.8744 -6.48295
-208.063 48.5116 -9.51829
-173.564 -35.1411 53.1128
-196.135 -34.8663 -42.645
-56.8615 10.581 85.0658
-100.099 80.5838 4.85127
-149.824 -21.4719 67.3404
-153.214 -21.7192 66.3195
-106.138 79.7412 2.47773
-103.832 79.9553 5.58816
-208.26 -1.82677 -49.3007
-211.703 -0.42921 -47.5049
7.75328 76.1399 -44.0381
9.32147 74.3791 -46.916
-22.2325 85.598 -18.8801
-24.5919 84.659 -22.4232
13.0969 74.0084 -47.3893
-209.323 34.9043 -34.0775
-209.442 37.4747 -31.131
-243.671 12.2878 -17.9902
-206.007 40.0821 -30.6854
-237.953 16.7265 23.0658
-240.125 13.533 22.3944
-198.677 34.6976 41.3213
-44.0973 -51.8647 -69.3972
-47.9419 -52.1843 -68.8433
-65.6661 78.0157 -33.6099
-62.5955 79.0125 -31.958
-198.915 37.6916 38.4594
-195.387 39.9802 38.3622
193.195 51.8473 -22.0511
191.209 51.6115 -24.5779
-17.4796 71.8773 -50.4008
-15.9325 70.2082 -52.761
-160.725 -8.68349 67.1261
-158.273 -5.14934 68.195
-159.182 -12.1871 67.0315
-155.591 -13.9549 67.7156
-181.219 -39.3697 -46.6196
-187.07 -34.8954 -47.3481
234.201 -8.19829 31.0077
231.367 -8.83977 33.3481
-185.725 -37.8064 -45.7339
-220.423 -36.332 -21.8072
-223.2 -33.1949 -23.2993
-74.8784 69.373 47.3808
-199.262 43.3604 -31.6658
-202.427 40.5064 -32.9613
-79.5186 71.7988 42.6003
-75.7428 71.5503 43.8426
-199.863 -47.1007 -25.1998
-196.405 -49.1628 -24.5818
-156.239 -38.5673 57.1661
-155.218 -34.6086 59.9714
-162.934 56.2413 -36.4785
-159.792 58.0713 -35.2936
245.94 -16.0779 8.95225
246.756 -13.0535 10.9094
-202.196 25.12 -45.9088
246.469 -16.6406 5.45926
-222.674 -40.7298 -3.81009
-219.563 -42.6766 -4.53663
-225.917 36.4502 -12.9115
-224.093 36.2081 -16.8758
-228.901 -34.8682 10.6495
-231.376 -33.5775 7.89084
-225.472 -37.7615 9.6949
119.609 74.8215 19.855
-172.164 -51.102 -38.7773
115.415 75.6354 19.81
47.9015 12.1422 -85.5315
51.4903 10.7547 -85.4619
-180.223 -22.1803 57.2317
-179.973 52.3132 -32.2768
-165.459 0.844385 66.2688
-168.582 2.8205 65.2424
-181.022 -17.4228 58.5535
36.4528 -59.7573 63.3275
37.7868 -57.2107 65.5449
-159.985 -59.9395 -31.9
-182.768 -21.799 -56.3836
-184.316 -18.0324 -57.0928
-11.9635 14.9043 -86.6276
-188.59 -54.998 19.101
-192.466 -53.1212 19.6698
-145.956 9.32346 -71.0558
-143.75 12.1203 -71.1843
-174.398 52.4011 35.6993
-173.451 50.703 38.5987
-187.196 39.7 -43.3317
-231.503 33.4914 -7.79783
-229.097 35.9661 -4.96057
-234.908 30.8678 -5.9377
241.404 7.72061 23.4443
239.892 10.8364 24.102
240.61 13.4015 21.8298
-138.88 -61.8306 -39.4916
-138.123 -60.1635 -42.2921
-141.497 -58.2521 -43.583
-200.351 -41.1654 -33.6898
-218.718 20.1124 -38.5061
-52.724 8.95034 85.5778
-56.68 -81.1833 27.5672
-60.1943 -81.461 25.7778
-152.619 56.1686 41.6816
-153.442 58.0357 38.6433
-189.415 -9.90188 -57.0384
-186.069 -8.88198 -58.5353
64.9087 -8.71659 84.5707
67.893 -7.08876 84.4358
-196.835 -37.2205 40.1892
-200.415 -34.6109 40.355
-180.668 -48.2459 -37.6839
-174.532 -52.0917 -36.0701
-215.619 -38.509 23.8557
-218.655 -36.4151 23.7598
-178.254 -50.982 -35.4211
-121.71 47.8714 -60.3219
-71.679 59.2643 60.0225
26.8711 -68.3036 54.6829
24.81 -66.5901 56.8717
-87.2076 -8.61605 -82.0893
-84.0263 -6.31354 -82.7027
-35.5466 85.4796 -16.8088
-38.8795 84.9343 -18.5767
-75.4604 59.792 58.9217
-117.771 48.8638 -60.4832
67.1048 -10.9784 -84.0962
63.3559 -11.5822 -84.3707
-122.418 44.6655 -62.5639
-76.591 63.7483 -54.4238
-80.0594 64.0119 -53.4954
-210.937 -46.4386 -11.8322
-207.91 -47.2776 -14.7159
-70.3818 -66.9063 51.5856
-82.8208 61.5244 -55.8477
181.008 57.5718 -20.4499
187.795 54.7415 -20.7272
-57.9801 -57.7728 -63.2038
-60.2445 -59.9516 -60.8724
185.033 56.5048 -18.9616
-52.228 4.84585 85.9451
170.803 -60.94 -21.4144
166.657 -61.8364 -22.799
-242.16 -11.2312 20.9366
-241.443 -7.7148 23.3969
231.623 25.8608 -22.5155
229.371 25.1799 -25.8605
225.985 27.6872 -26.9258
-235.384 -18.9703 -24.5115
-234.85 -16.6287 -26.7371
-226.071 27.1583 -27.3722
-222.955 28.4593 -29.1237
-220.771 31.3734 -28.151
-250.634 -7.29626 -0.178271
-176.062 45.2993 43.5533
58.725 51.2134 -68.5491
59.7854 48.3828 -70.4663
128.123 68.3794 32.5344
131.614 68.3054 30.9453
-176.958 47.6035 40.5478
-181.057 46.7505 39.3053
18.7051 -86.4181 15.267
142.042 69.3647 -21.5033
141.11 68.3953 -25.0649
23.2386 -86.1703 15.8921
181.098 -44.0246 42.3148
25.6369 -86.6618 12.3797
-189.029 21.6359 -53.863
-189.448 17.89 -55.0439
-212.326 -45.0148 14.0791
-120.854 -47.0071 -61.2058
-24.3195 -37.2768 79.2593
52.342 18.5018 -84.0611
55.8546 16.716 -84.1583
-25.2884 -41.1255 77.2942
-119.135 -6.55196 -77.223
-115.756 -7.76864 -77.7376
-200.054 16.4641 50.7255
-215.148 -43.2646 14.3196
-153.453 32.9989 61.4176
-156.882 31.3309 61.23
-157.692 28.1781 62.4943
-79.9671 -83.431 0.603129
-63.7948 72.4195 -44.7342
-62.9266 70.392 -48.0018
-79.8046 -83.3553 -4.02085
-209.642 -18.6828 44.8795
-60.6932 71.0298 47.4107
-205.671 -19.6762 46.6686
-191.284 -46.3889 33.3529
-190.154 -45.0081 35.9355
-195.137 47.3186 29.034
-192.217 -42.6385 37.4498
-97.7219 19.7108 78.6532
-94.1547 20.954 78.8643
-195.846 -41.8733 35.9822
-247.679 -8.81312 12.483
188.065 -42.022 40.5953
184.93 -44.2656 39.9693
-127.294 75.4816 7.91913
-123.694 76.0009 9.72858
48.9027 1.66546 86.3043
130.448 15.5872 -73.6048
-179.747 46.5082 -40.3159
198.596 13.1792 52.3603
200.49 9.43245 52.2854
113.375 74.8962 23.6824
109.638 75.3408 24.4151
149.576 63.7396 -30.6942
145.749 65.3523 -29.535
-166.874 -45.6714 -47.4218
129.85 19.3511 -72.8371
-209.811 43.7049 -21.0814
-206.95 46.1279 -19.3057
126.475 20.2032 -73.331
-61.9008 -0.39667 85.292
-59.2081 2.53799 85.489
-53.8637 -2.0347 85.934
[...]
POINT_DATA 10490
VECTORS F double
3.25869e-08 4.95781e-08 3.41211e-09
1.14577e-07 9.46142e-08 -2.8466e-08
1.14883e-07 5.42279e-07 2.55981e-07
3.47454e-08 5.16763e-09 -2.49166e-08
2.38495e-07 2.1175e-07 -4.76386e-09
1.2542e-07 1.34477e-07 -4.79894e-09
5.23511e-08 2.43757e-08 -5.33942e-08
-1.68369e-06 2.02963e-06 1.07151e-07
8.80321e-07 6.51876e-07 1.19221e-07
9.45615e-07 5.62163e-07 -3.85156e-08
7.58571e-09 4.59257e-08 -2.41819e-08
7.6657e-09 4.06899e-08 -1.32587e-08
1.04687e-07 2.93931e-07 1.42282e-07
-2.10698e-06 3.5697e-06 1.1905e-07
1.43504e-07 1.02667e-07 -9.65578e-09
3.31268e-06 5.33341e-07 -1.68969e-06
4.36045e-06 6.83256e-07 -2.58632e-06
-1.09546e-08 1.8521e-08 6.82725e-09
-1.24907e-08 1.82239e-08 8.72227e-09
-3.9704e-05 5.53e-06 4.38529e-06
-3.79095e-05 6.14674e-06 4.98622e-06
-3.44907e-06 1.98311e-06 -2.96233e-07
-3.14093e-06 1.46326e-06 -2.45969e-07
2.30297e-08 1.63282e-07 -1.4125e-07
4.60498e-08 1.82158e-07 -1.68666e-07
2.08382e-08 1.11327e-07 7.08209e-08
1.0057e-08 9.19376e-08 6.05525e-08
-3.24482e-08 1.31338e-07 1.68582e-07
-1.1704e-07 1.10221e-07 1.18563e-07
2.19765e-07 1.77907e-07 -1.64607e-07
4.99825e-07 2.34429e-07 8.75271e-08
3.40255e-07 2.5056e-07 -6.98744e-08
1.12605e-07 2.65189e-06 7.4351e-07
-2.87243e-07 1.29636e-06 3.52757e-07
-1.86826e-06 2.85025e-06 -1.90035e-08
9.0635e-09 1.49781e-08 3.24859e-08
0.000143331 3.90583e-05 8.97261e-05
0.000154245 4.31837e-05 9.43105e-05
1.8486e-08 1.21006e-09 -3.04545e-08
1.60802e-08 -7.68097e-10 -1.45608e-08
5.86315e-07 3.07906e-07 2.55838e-08
1.62567e-08 1.56088e-08 3.47193e-08
3.76314e-07 2.50792e-06 4.85702e-07
-1.36907e-06 3.38262e-06 -3.10516e-07
-2.27455e-08 1.47055e-08 -7.4843e-09
-3.66176e-08 3.25682e-08 1.37572e-08
1.27009e-06 8.61736e-07 -5.2345e-08
1.0386e-06 1.8728e-06 3.81339e-07
-2.44448e-08 7.42501e-08 -5.41298e-08
-1.78807e-08 8.59607e-08 -6.65208e-08
4.37758e-08 1.04668e-07 -4.23235e-08
6.16238e-08 1.12603e-07 -4.35244e-08
8.69362e-07 2.10382e-06 6.21302e-07
8.0871e-07 1.98039e-06 6.76671e-07
-1.79639e-08 4.50028e-08 2.12474e-09
-1.31624e-08 3.7112e-08 5.05155e-09
3.43774e-08 5.18124e-08 5.75216e-08
1.40284e-07 5.48799e-08 -7.01238e-08
-1.37022e-08 1.02141e-08 -1.29327e-08
-1.39303e-08 8.27237e-09 -1.27632e-08
-2.57272e-06 3.26807e-06 -2.52607e-07
-2.31425e-06 4.3061e-06 -1.88331e-07
1.18781e-08 4.52779e-08 4.17595e-08
-2.10075e-08 3.66096e-08 6.42153e-08
-4.77094e-09 8.10444e-09 5.13802e-09
1.82275e-05 6.41931e-06 1.35002e-06
-9.18405e-09 1.76197e-08 1.34178e-08
-5.55974e-07 5.25636e-06 -7.98657e-08
2.67256e-07 3.88146e-06 -1.87949e-07
-2.74414e-07 8.3389e-06 6.98281e-07
-3.87036e-06 6.19153e-06 1.07682e-07
-2.32768e-06 4.46281e-06 1.01391e-09
-1.20071e-06 2.28605e-06 -2.46835e-07
2.30359e-09 2.42953e-08 2.88169e-08
1.48979e-09 9.29036e-09 -3.87006e-10
-2.10264e-09 5.12239e-09 -6.33149e-09
3.14376e-07 3.91835e-07 -2.82053e-07
1.00919e-06 1.61306e-06 -2.08858e-07
4.50361e-07 5.2929e-07 -3.55124e-07
-2.68588e-10 1.75726e-08 1.63156e-08
-6.0344e-09 7.86774e-09 6.21068e-09
-1.84678e-09 7.78219e-09 1.34571e-09
1.05489e-08 8.77913e-09 2.1647e-08
1.49018e-08 5.11529e-09 2.88782e-08
7.85623e-09 3.16536e-09 1.9057e-08
8.91907e-09 1.16696e-08 2.27337e-08
2.23061e-08 2.10246e-08 5.06173e-08
2.03331e-07 2.46158e-07 -7.35041e-08
2.50247e-08 1.88798e-08 5.00278e-08
3.89613e-07 4.59477e-06 -3.9559e-07
2.0675e-06 2.69559e-06 -2.61105e-07
1.88197e-06 3.18847e-06 -5.14385e-07
-1.52382e-08 1.48908e-07 1.3672e-07
-4.5715e-08 2.19383e-07 1.95058e-07
5.68772e-06 3.90239e-06 2.41706e-06
7.77337e-06 2.97995e-06 5.04691e-07
4.49339e-07 3.54104e-07 -4.59126e-07
1.31044e-06 6.0006e-07 -3.6687e-07
4.58854e-05 2.55408e-05 2.33711e-05
2.72409e-06 6.99969e-07 -1.08934e-07
2.45453e-06 -3.65734e-07 -3.14305e-07
4.77175e-05 2.56525e-05 2.49177e-05
-1.0467e-06 4.38108e-07 -1.86443e-07
-1.11699e-06 4.4949e-07 -1.91731e-07
5.07729e-09 1.01527e-08 2.9527e-08
3.48023e-09 1.3974e-08 3.24807e-08
8.93653e-07 4.94425e-07 7.13057e-08
8.73745e-07 6.44346e-07 -9.08665e-08
4.88091e-08 6.5051e-08 -1.73605e-08
7.86723e-05 3.55685e-05 -5.03864e-05
7.16492e-05 3.33602e-05 -5.26349e-05
4.03952e-08 6.88063e-08 3.62019e-10
2.81532e-08 -2.1595e-09 -1.19156e-08
3.18152e-07 2.83221e-07 1.66698e-07
1.72176e-07 1.34471e-07 8.23152e-08
6.38447e-07 3.37653e-07 -2.24737e-07
7.28369e-07 3.49246e-07 -3.36338e-08
1.59611e-08 9.79519e-08 -1.82705e-08
1.07568e-07 1.33213e-07 -5.26288e-08
4.1991e-07 2.2704e-06 -7.57523e-07
1.24326e-06 8.56941e-07 7.80885e-08
2.64142e-09 -4.53199e-10 -5.2066e-09
2.10791e-10 -3.32171e-10 2.38799e-09
3.38563e-05 1.13072e-05 1.43061e-05
3.50349e-05 9.74618e-06 1.08075e-05
-2.70787e-08 3.92504e-08 -8.17381e-08
-1.89631e-08 4.97735e-08 -9.75519e-08
3.4366e-06 1.39833e-05 3.1879e-06
9.40746e-08 1.16756e-07 -1.65005e-07
9.1017e-08 1.40321e-07 -1.83068e-07
3.50689e-08 1.15127e-07 1.32827e-07
6.12588e-08 1.74324e-07 1.95025e-07
2.49132e-06 7.72495e-07 -4.1835e-07
3.68869e-07 7.91841e-06 1.28781e-06
-2.29769e-06 4.00139e-06 6.52688e-07
6.45422e-07 4.65154e-08 -2.65145e-07
1.74922e-07 4.87199e-07 2.94189e-07
2.14549e-07 7.33304e-07 4.25211e-07
-4.15016e-08 6.87632e-08 -1.11922e-07
-4.05161e-08 4.58506e-08 -7.59228e-08
9.68067e-08 1.91246e-07 -1.37323e-07
2.39825e-08 1.22827e-07 -8.40841e-08
-5.88647e-05 2.58624e-05 -3.45185e-05
-5.45876e-05 2.74524e-05 -3.38033e-05
2.52807e-06 1.10766e-06 1.61336e-07
2.13656e-06 1.31013e-06 -6.47735e-08
-5.32359e-07 2.18309e-07 -1.05744e-07
-1.55188e-06 6.55357e-08 4.44728e-07
-5.13851e-07 2.75366e-07 -2.4697e-08
8.13397e-07 9.58648e-07 5.41295e-08
2.01696e-07 2.80137e-07 1.57612e-08
4.44342e-05 5.51767e-05 8.04601e-05
-6.72849e-06 3.2694e-06 1.74914e-06
5.29404e-05 5.19199e-05 8.07982e-05
-2.01085e-09 5.39989e-09 -6.708e-09
-1.29166e-09 4.40606e-09 -5.13492e-09
-5.90969e-06 9.32934e-05 0.000188818
1.63251e-05 8.32572e-05 0.000155394
-1.84739e-10 1.3411e-09 1.05292e-09
-5.01664e-10 1.70581e-09 1.83549e-09
3.32899e-07 4.55315e-07 -2.77696e-08
2.77355e-07 5.12563e-07 -9.67139e-08
4.03412e-05 2.90333e-05 -3.27097e-05
3.34115e-05 3.26357e-05 -4.14293e-05
1.74593e-07 8.79756e-08 -7.51727e-08
-1.45671e-09 4.93337e-10 3.38123e-09
2.00393e-07 1.66914e-07 -1.68105e-07
2.08058e-08 1.18735e-07 -9.93127e-08
1.82915e-07 5.33851e-08 -8.41639e-08
1.38344e-08 7.96569e-08 2.99234e-08
5.12435e-07 2.704e-07 8.34918e-08
5.49194e-07 2.90815e-07 1.27731e-08
6.06679e-08 9.38487e-08 8.63507e-08
5.61017e-08 1.43179e-08 -4.32798e-08
1.39188e-06 4.10455e-06 -3.9669e-07
5.32489e-05 7.94612e-06 2.5226e-06
-1.21748e-08 2.16082e-07 6.55702e-08
-4.13553e-08 2.96141e-07 8.52691e-08
4.21291e-05 7.31799e-06 -1.45722e-05
4.75888e-05 8.75063e-06 -1.69478e-05
5.10774e-08 7.93559e-08 -2.93307e-08
5.97763e-08 1.40189e-07 -3.38451e-08
-7.71641e-05 3.7924e-05 6.39052e-05
-5.51225e-05 4.32237e-05 6.71842e-05
0.000407313 5.74851e-05 0.000201889
0.000234038 8.40668e-05 0.000285964
-5.71916e-05 2.38377e-05 3.52923e-05
2.81784e-07 2.10612e-07 3.93243e-09
7.53224e-07 4.2188e-07 -1.1243e-07
7.01321e-08 1.13401e-07 -3.86715e-08
6.9746e-07 5.23059e-07 1.10097e-07
5.10108e-08 1.27446e-07 -2.80911e-08
5.49223e-08 1.08222e-07 6.59325e-09
3.69708e-07 -1.2752e-07 3.24635e-07
3.57444e-07 2.87774e-07 -2.42871e-07
3.2475e-07 3.61214e-07 -3.01483e-07
8.43184e-05 3.52447e-05 6.16411e-05
8.4312e-05 3.6259e-05 6.94277e-05
6.09173e-07 -1.67058e-09 3.87295e-07
4.83727e-07 2.5458e-07 3.62301e-08
-8.60725e-08 4.13779e-08 4.97795e-09
-1.15933e-07 6.23431e-08 2.05028e-08
6.43592e-06 6.7296e-05 9.56984e-05
-1.22716e-05 6.13224e-05 8.20544e-05
5.69607e-07 3.73957e-07 2.15325e-07
7.25901e-07 3.08097e-07 2.29499e-07
1.38158e-07 1.57309e-07 6.87473e-08
2.31285e-07 3.17675e-07 1.30509e-07
7.18658e-08 6.52132e-08 -8.92637e-08
8.29202e-08 5.69944e-08 -8.20982e-08
1.00026e-10 6.89377e-09 1.7229e-09
-3.21045e-10 7.55067e-09 2.26714e-09
6.12256e-08 4.54383e-08 -6.79866e-08
1.29233e-09 5.13419e-09 -1.0132e-08
-1.91412e-10 7.2673e-09 -1.01001e-08
5.58141e-05 1.74543e-05 -1.47569e-05
7.33774e-07 5.75995e-07 2.23531e-07
7.48523e-07 5.42618e-07 1.04141e-07
4.63545e-05 1.15954e-05 -8.94958e-06
5.13371e-05 1.68794e-05 -1.66886e-05
3.27613e-09 1.02589e-08 -2.2342e-08
5.47154e-10 5.55297e-09 -1.1634e-08
5.53416e-08 1.8688e-07 1.44579e-07
1.42098e-07 1.78865e-07 1.48229e-07
1.57593e-06 1.11479e-06 8.57093e-07
1.91063e-06 1.06614e-06 6.953e-07
1.48525e-09 4.24929e-09 2.59801e-09
7.96869e-10 4.68998e-09 3.37416e-09
2.78127e-07 1.98767e-07 -4.11746e-08
1.01039e-09 2.5797e-09 2.21357e-09
-9.49494e-09 6.70124e-09 -3.60137e-09
-6.8616e-09 3.38406e-09 8.88975e-09
2.5895e-07 1.94129e-07 -6.32896e-09
3.32754e-07 2.51537e-07 -1.01574e-09
1.51968e-09 3.37579e-09 1.49713e-08
-2.96615e-09 6.47842e-09 1.6792e-08
-1.97389e-09 1.05652e-09 -1.57004e-09
-2.62488e-06 3.51579e-07 6.10984e-07
2.93672e-08 -4.20772e-09 -1.041e-08
-2.70564e-06 4.48934e-07 2.1579e-07
8.67287e-07 1.69846e-06 3.00593e-07
7.52615e-07 1.09437e-06 1.9324e-07
8.51996e-08 2.30491e-07 1.22147e-07
1.61076e-06 5.17889e-07 -2.60098e-07
3.68054e-07 1.82554e-07 1.10159e-07
3.79414e-07 2.64304e-07 1.08575e-07
1.24395e-07 2.53289e-07 1.22423e-07
-2.9963e-08 1.44244e-07 1.38218e-07
-1.51596e-08 1.54264e-07 1.35712e-07
2.55217e-08 8.16884e-09 -3.1011e-08
5.13736e-08 5.5486e-08 -4.1828e-08
1.64581e-07 1.01292e-07 -9.70283e-08
2.41588e-06 1.10248e-05 1.85599e-06
4.40955e-09 4.56973e-09 1.84747e-08
1.88865e-09 4.52324e-09 1.4467e-08
1.02999e-06 7.51488e-07 -1.60374e-07
7.27289e-07 1.11157e-06 9.49661e-09
1.80415e-06 1.17643e-06 -6.47909e-07
1.26827e-06 9.11146e-07 -4.99245e-07
1.00167e-06 9.52943e-07 3.43355e-07
2.63994e-07 2.19848e-07 -1.47261e-08
2.52326e-07 2.01882e-07 3.77954e-08
2.10336e-07 1.68722e-07 -1.40878e-07
-7.31999e-09 1.33938e-08 4.80336e-09
-5.76668e-09 1.63082e-08 -3.19112e-10
-6.57919e-09 1.68377e-08 -1.47546e-09
4.94371e-08 2.33642e-08 -5.78569e-08
2.12499e-08 3.84284e-08 -6.31557e-08
5.67289e-08 7.53503e-08 -1.23251e-07
-1.31412e-09 3.51291e-08 -4.19522e-08
1.1453e-07 1.60801e-07 4.39925e-09
2.42582e-06 5.9732e-06 -4.4179e-07
1.20902e-08 1.4217e-08 4.49023e-08
6.88601e-09 1.37697e-08 4.54711e-08
7.60693e-07 7.08201e-08 2.4542e-07
3.79011e-06 1.28841e-06 -9.26209e-08
1.19868e-07 1.88909e-07 -8.15038e-08
1.53812e-07 1.31121e-07 -7.97341e-08
2.41036e-07 4.93037e-07 2.81609e-08
6.95073e-08 9.07451e-07 6.93324e-08
1.82729e-08 4.03441e-08 4.83078e-08
1.54339e-08 4.32874e-08 4.64937e-08
1.34002e-08 1.97663e-08 -3.31612e-08
1.11123e-08 7.85417e-09 -1.79193e-08
7.45128e-09 4.15149e-09 1.49288e-08
7.25707e-09 7.7532e-09 2.00424e-08
7.95017e-09 1.49848e-08 -2.64563e-08
1.01622e-05 4.6324e-06 1.16607e-06
2.51423e-05 2.53245e-05 -2.13287e-05
-1.85985e-09 1.43611e-07 1.7949e-07
-6.58215e-08 1.22382e-07 1.46806e-07
8.27126e-07 1.57659e-06 -2.73032e-07
7.77015e-07 1.81974e-06 -2.35546e-07
0.000305622 4.49205e-05 0.000149304
0.000283552 4.948e-05 0.000153566
2.42136e-05 2.58817e-05 -2.24675e-05
9.79209e-06 8.18771e-06 4.2805e-06
-8.63923e-07 7.76874e-07 -1.85811e-07
-8.90096e-07 6.20163e-07 -1.66958e-07
6.24628e-06 4.56417e-06 1.76221e-06
3.15124e-05 3.08618e-05 3.07199e-05
2.65928e-05 2.20331e-05 2.14922e-05
8.05755e-10 -8.90027e-10 1.77322e-09
-5.46817e-09 6.06375e-09 -9.99809e-09
-8.16237e-08 5.18299e-08 5.35822e-08
3.1214e-05 1.93494e-05 1.56491e-05
-2.29504e-07 6.87859e-08 -5.50261e-08
-1.80776e-07 8.34287e-08 1.98404e-08
-3.38815e-07 2.45499e-07 -1.86342e-07
-1.91861e-07 1.40372e-07 -1.14992e-07
-2.22993e-07 8.50413e-08 -1.29563e-08
6.70377e-07 5.49905e-06 -2.60221e-07
3.06712e-09 3.15174e-09 -5.96993e-09
2.92105e-09 3.92183e-09 -8.01947e-09
-5.05884e-09 2.43784e-08 5.80699e-09
6.14349e-09 2.20977e-08 1.49425e-08
-7.25205e-09 1.29692e-08 5.78009e-09
-1.52593e-08 2.37502e-08 6.5715e-09
-1.84917e-08 2.1695e-08 3.32364e-09
-1.16429e-08 3.15489e-08 -1.06792e-08
1.99509e-08 1.2288e-08 -2.90478e-08
2.0716e-07 2.34177e-07 2.29517e-08
2.15568e-07 1.345e-07 -7.05247e-08
1.79052e-07 1.59258e-07 5.66033e-09
-1.11727e-08 4.74989e-08 -5.8043e-09
9.02602e-07 4.87482e-07 -6.0402e-08
-4.10241e-06 3.69324e-06 2.32896e-06
-2.36506e-06 3.85204e-06 2.39918e-06
-1.1915e-06 1.31972e-07 2.97077e-07
-1.01076e-06 -2.15598e-08 5.73875e-07
1.47447e-06 7.65273e-07 -1.10729e-07
1.33449e-06 2.94733e-07 4.01936e-07
-4.97439e-09 4.24473e-09 2.47682e-08
-6.18972e-07 -2.77946e-08 -5.90212e-07
-1.11255e-06 8.50958e-08 -5.34608e-07
-1.33909e-10 9.15888e-10 4.98403e-09
-6.81728e-09 5.73854e-09 9.53983e-09
-3.40211e-09 3.56202e-12 8.76196e-10
1.98531e-07 4.51312e-07 9.6021e-08
1.39149e-07 4.34815e-07 8.27212e-08
-7.37804e-09 8.07553e-09 1.21674e-08
2.74744e-07 1.9707e-07 -2.17761e-07
-4.91091e-08 2.60408e-07 1.20615e-07
-1.77629e-06 2.47221e-06 4.0873e-07
-1.70691e-06 2.34868e-06 3.27819e-07
-1.19091e-07 2.34639e-07 1.20059e-07
-6.6689e-08 1.02476e-06 -7.43334e-08
-8.36746e-09 1.066e-06 -1.04985e-07
2.48411e-07 4.58525e-07 -2.89194e-08
-7.80928e-09 1.00073e-08 1.58485e-08
1.44223e-06 2.78082e-06 -1.05299e-06
1.77856e-06 1.75487e-06 -3.40099e-07
-1.69197e-07 1.92172e-06 -9.18812e-07
-1.27578e-08 1.44341e-09 -7.72634e-09
4.17154e-05 3.82396e-05 5.46222e-05
3.06335e-05 3.68823e-05 4.91692e-05
7.67108e-10 4.08567e-10 -1.0286e-08
1.65631e-08 5.67156e-08 3.30556e-08
6.79759e-05 3.84413e-05 -4.69382e-05
2.62915e-08 8.25232e-08 4.89558e-08
1.53549e-08 1.50938e-08 3.17655e-08
2.50837e-08 1.30465e-08 3.25811e-08
3.57719e-07 3.4746e-07 -2.72008e-07
1.85629e-08 1.43127e-08 2.79517e-08
2.19349e-06 7.22047e-06 -1.47588e-06
4.14315e-06 2.29859e-06 -5.18716e-09
1.09232e-08 3.39132e-08 4.67326e-08
-6.0778e-09 3.84937e-08 1.2209e-08
-1.28014e-08 8.54491e-09 1.61039e-08
-7.60859e-09 2.19305e-09 6.73595e-09
8.3402e-06 1.83515e-06 -1.07944e-06
1.06013e-05 2.69228e-06 -4.53075e-06
-2.34353e-06 1.77382e-06 1.28332e-07
-1.67963e-07 4.31987e-07 5.5045e-08
2.46713e-06 9.59991e-07 -2.39174e-07
-4.94665e-08 6.56502e-08 6.43846e-09
-2.45873e-08 7.38929e-08 -1.79449e-09
-1.93464e-06 1.34485e-07 7.08545e-07
-2.32126e-06 7.46076e-07 -1.02612e-06
-1.15511e-06 2.93967e-07 -7.86876e-08
-1.3624e-06 1.7619e-07 -4.33239e-07
-3.4487e-08 6.89766e-08 -5.15651e-08
-4.56497e-07 4.2255e-07 1.26342e-08
4.40052e-07 1.6295e-07 -1.9823e-07
4.62734e-07 1.79967e-07 -1.771e-07
-4.79742e-07 4.44344e-07 2.1128e-08
7.3084e-07 4.83546e-06 8.73918e-08
1.8865e-06 4.05522e-06 3.95305e-08
1.21252e-06 3.25045e-06 1.69981e-07
5.27749e-09 6.95042e-09 2.38286e-08
9.31445e-06 2.00075e-06 4.67181e-07
1.06283e-05 2.31665e-06 -2.18831e-06
-1.23616e-06 6.31764e-06 -1.08483e-06
4.51781e-09 5.32511e-10 8.31594e-09
2.01978e-06 3.77732e-06 8.30377e-08
1.61031e-06 1.19567e-05 6.87491e-06
5.33271e-06 5.55444e-06 2.2657e-06
1.34085e-05 1.18016e-05 5.53257e-06
1.02214e-07 3.02947e-07 5.9042e-08
7.15588e-08 4.17368e-07 4.36503e-08
-2.31142e-07 1.34956e-06 1.49647e-07
-1.0414e-08 7.27853e-07 8.17778e-08
6.09504e-07 2.66554e-07 1.29667e-07
2.82216e-07 4.17769e-07 8.52935e-08
1.88917e-06 6.49207e-07 -6.57179e-09
2.71888e-06 1.20606e-06 5.53101e-07
-1.52349e-08 1.38342e-09 1.47887e-08
-1.35087e-08 -1.37318e-10 9.31127e-09
4.23907e-08 1.58655e-08 -5.79081e-08
3.113e-08 9.99604e-09 -3.78565e-08
-8.04343e-09 5.09558e-08 7.83579e-08
8.22423e-09 3.9703e-08 7.72564e-08
-7.00705e-09 4.31683e-08 7.28028e-08
2.28955e-07 9.36825e-08 1.50853e-07
3.40065e-07 2.08458e-07 -5.81795e-08
4.79227e-07 2.29204e-07 1.05898e-07
2.00455e-08 4.86876e-08 -5.54738e-08
1.18061e-08 4.47787e-08 -4.87716e-08
-3.90214e-08 5.13148e-07 -2.96817e-07
3.00744e-08 3.02051e-07 -1.79572e-07
-1.05143e-07 2.83596e-06 -5.26558e-07
-7.2485e-07 1.93998e-06 -3.62682e-07
-3.37557e-09 3.59245e-08 -3.53232e-08
1.83842e-07 3.82768e-08 -4.70072e-08
-1.27817e-08 6.50714e-09 8.70465e-09
8.20671e-09 2.12687e-08 -3.25682e-08
-1.70078e-06 3.79501e-06 -1.63199e-07
-5.62255e-08 3.28761e-07 -2.44447e-07
-1.02871e-07 3.03514e-07 -2.14784e-07
3.25918e-05 3.61237e-05 3.37389e-05
1.69093e-06 8.69901e-07 1.24954e-06
0.000133714 1.2013e-05 -8.87816e-06
0.000160059 1.41043e-05 -3.94847e-05
0.000103738 1.50501e-05 -5.85868e-05
0.000140744 1.41412e-05 -3.10906e-05
1.74047e-06 8.42036e-07 1.39699e-06
3.10184e-05 2.85146e-05 2.5596e-05
2.72905e-05 2.91446e-05 2.43769e-05
1.92991e-08 1.77402e-08 -4.2128e-08
-1.15062e-08 3.15739e-09 -2.01624e-08
-6.16424e-09 2.37199e-09 -2.62044e-08
2.28767e-08 1.4597e-08 -3.91582e-08
1.18877e-08 9.01231e-09 -2.43626e-08
1.40318e-07 2.05708e-07 5.76118e-08
1.10692e-07 3.12783e-07 1.73127e-07
-6.87361e-07 1.08829e-07 2.10849e-07
-2.73136e-05 8.92203e-06 -8.00127e-06
-2.31595e-05 1.53787e-05 -1.72977e-05
-8.19806e-07 7.99217e-07 -2.21929e-07
1.57952e-07 1.73599e-07 -1.33892e-07
2.82315e-07 3.02395e-07 8.48293e-08
1.49331e-07 4.15127e-07 -2.19537e-07
1.47594e-07 1.94835e-07 -1.27249e-07
6.52304e-08 5.93904e-09 4.42682e-08
5.41795e-08 3.28416e-08 7.5297e-08
3.63336e-08 2.1057e-08 5.18586e-08
1.2475e-06 1.62093e-06 -1.15738e-07
1.37893e-06 1.88716e-06 -1.18231e-07
-5.59645e-05 2.47617e-05 -3.65137e-05
-1.03272e-07 2.17133e-07 4.38276e-09
1.55435e-08 1.23215e-08 2.73942e-08
-1.93432e-08 4.39616e-08 7.96075e-08
6.60646e-07 1.93044e-06 -2.0889e-07
6.89646e-07 1.32589e-06 -1.69425e-07
-6.16719e-08 1.00808e-07 -2.59881e-09
8.39516e-08 1.25179e-07 -6.42092e-09
-1.15781e-07 1.70836e-07 -1.34971e-08
-2.3825e-05 1.72837e-06 -8.4349e-07
1.24021e-09 1.07257e-07 -5.2157e-08
-6.0437e-09 9.24133e-08 -4.64335e-08
-7.86367e-06 -1.18598e-06 -3.20187e-06
7.51791e-07 6.72505e-07 -2.20947e-07
-1.71202e-05 5.8398e-06 6.13975e-06
-5.60641e-09 5.21861e-08 -2.10545e-09
1.63207e-06 5.83026e-07 1.6481e-07
1.70464e-06 4.95411e-07 3.78794e-07
1.3412e-09 4.0568e-08 -1.84997e-08
-3.50801e-09 4.18868e-08 1.50654e-08
8.24527e-08 1.36864e-07 -6.97691e-08
3.58042e-09 7.33062e-10 -1.01717e-08
4.30018e-09 4.14132e-09 -1.77093e-08
3.69866e-07 3.64875e-07 -8.30963e-08
4.27627e-07 3.16251e-07 3.90376e-08
2.63636e-06 2.20874e-06 9.41024e-07
3.93255e-05 4.5882e-05 5.8983e-05
3.71034e-05 4.62959e-05 5.44282e-05
8.69313e-09 5.05216e-10 -3.78404e-09
-5.26465e-09 5.45233e-10 -1.25999e-08
2.10773e-05 3.37467e-05 3.80596e-05
2.8525e-07 9.2066e-08 1.13928e-07
1.66306e-07 1.29165e-07 1.43738e-08
-8.69304e-09 2.975e-08 4.13027e-09
-6.6259e-08 1.48427e-07 1.33094e-07
-6.58745e-08 1.63328e-07 1.34143e-07
-5.35365e-07 3.12964e-06 2.59993e-07
-7.64571e-08 4.29598e-08 3.45739e-08
1.45762e-10 7.70945e-08 6.69766e-08
-7.31936e-05 4.20857e-05 -6.5039e-05
-5.46456e-05 3.36814e-05 -4.82174e-05
-6.84208e-07 3.12938e-06 2.71254e-07
1.0534e-06 1.23113e-06 -2.51373e-07
-2.2406e-07 2.58394e-06 3.41523e-07
8.76193e-10 1.15917e-08 -1.21817e-08
1.15622e-07 7.12385e-07 -2.28101e-07
-1.39738e-05 3.75446e-05 -3.67408e-05
3.08801e-07 3.50086e-07 -3.18577e-08
8.82464e-07 5.81158e-07 5.62045e-07
4.1273e-08 7.33044e-08 -3.5756e-08
-1.41331e-08 2.03902e-08 1.25552e-08
4.45214e-09 1.7245e-09 -5.78373e-09
-1.76799e-09 2.5029e-09 -1.47038e-08
-1.43814e-05 2.47889e-05 -2.42542e-05
-1.39185e-08 2.73531e-08 3.70063e-08
1.24149e-06 4.59347e-07 -1.96881e-07
-1.59239e-09 -7.82671e-10 5.6467e-10
4.81875e-08 8.64494e-08 9.59176e-08
1.04453e-08 3.95255e-09 1.55947e-08
2.51969e-05 2.77142e-05 -1.92836e-05
2.30693e-07 8.87736e-08 -9.79067e-08
1.04905e-05 3.10602e-05 -2.55644e-05
0.000718919 2.94285e-05 -0.000192382
0.000715579 3.68254e-05 -0.000184588
1.52014e-08 5.80759e-08 5.89819e-08
-7.46538e-05 8.00761e-05 -0.00020249
1.55461e-08 6.63951e-08 5.80966e-08
-5.87887e-08 6.67567e-08 8.81769e-09
-6.54202e-08 4.9718e-08 -8.09223e-09
3.21631e-08 9.30603e-08 8.16753e-08
9.42243e-07 1.03486e-06 -3.15938e-07
8.82126e-09 4.97416e-09 -1.3378e-08
2.98913e-07 2.24133e-07 -6.42786e-08
4.04529e-05 5.21372e-05 -5.59569e-05
2.92971e-07 1.65221e-07 5.31618e-08
3.13026e-07 1.42022e-07 1.13803e-07
3.03218e-07 1.56171e-07 9.34924e-08
3.06856e-05 5.2475e-05 7.5335e-05
-8.91538e-08 4.78659e-08 -1.76412e-08
-7.85167e-08 4.20639e-08 -3.95781e-08
-1.64015e-07 1.05023e-07 -1.47772e-08
-2.85647e-07 2.43817e-07 -6.53836e-08
3.47685e-05 5.36897e-05 7.46284e-05
7.87643e-06 2.17453e-06 9.18804e-08
1.55274e-06 5.84194e-06 -3.25292e-06
1.40406e-06 4.86195e-06 -2.55705e-06
0.000430419 4.07286e-05 -0.000197902
0.000420948 4.07508e-05 -0.000168594