# vtk DataFile Version 2.0
S, Created by Mohamad Ibrahim Cheikh
ASCII
DATASET UNSTRUCTURED_GRID
POINTS 10490 double
-223.577 20.3384 -34.7914
-223.732 23.2836 -32.7643
-130.493 -29.3195 69.2789
-194.385 -37.8826 -41.0224
-207.477 29.5031 40.042
-235.88 27.3948 13.4743
-191.276 -39.7123 -41.081
14.4357 -3.16746 87.7978
-191.086 39.2094 -41.6681
-193.428 36.9217 -42.4281
-251.147 3.21121 -3.38016
-251.007 5.4615 -0.714583
-204.328 29.2934 -42.124
18.6411 -1.5758 87.7438
-201.231 30.3618 -43.1793
-151.383 68.7308 -14.6413
-148.607 69.9387 -12.1991
241.381 21.7602 -11.7088
240.378 24.3443 -8.78247
40.0665 72.826 -47.3691
43.8856 72.1278 -48.0187
45.4831 -3.23212 -86.4886
49.3392 -1.53458 -86.2763
-145.563 -45.4982 -55.4958
-142.059 -46.9231 -55.4209
-191.797 -27.367 49.9129
-189.472 -30.0448 49.4581
-64.339 -67.8386 51.3334
-66.478 -66.0182 53.3342
-121.232 -41.6829 -64.8625
-205.501 44.6027 24.1721
-208.439 41.8664 25.9229
-64.8774 -22.6375 81.9526
-61.2368 -23.953 81.9216
44.3448 4.13814 86.5224
-201.399 -44.9179 27.5759
-54.0415 82.2024 -25.084
-51.0844 81.7979 -27.0852
-109.542 -78.4117 -11.2478
-105.515 -79.2424 -10.0779
-195.507 42.634 35.3084
-200.947 -43.0035 30.8381
-54.4331 -15.3685 84.5284
3.54041 8.22061 87.6064
226.255 36.0723 -13.2452
223.494 37.2784 -15.4584
-147.017 22.4082 -67.7914
-143.851 23.6541 -68.1982
-167.021 -43.0252 -49.7748
-163.502 -43.4802 -50.7989
-215.267 -7.16053 -44.9366
-215.168 -3.16481 -45.4512
-105.649 -17.6545 77.8832
-104.113 -21.1896 77.2523
-247.959 -12.5242 7.72451
-247.222 -12.2255 10.5722
-226.225 -18.8477 33.5122
-129.027 -40.8343 -63.5479
238.447 4.07539 -27.6832
236.191 2.11793 -30.1591
30.7221 -3.78053 -87.2591
26.7463 -2.06179 -87.4767
-224.961 -22.5412 32.2493
-47.6601 -75.8726 41.343
-235.553 -26.7708 15.3058
-110.477 51.1034 -60.3172
-237.919 -25.2897 13.1986
-16.8333 -1.54694 -87.789
-20.0224 -4.0708 -87.6262
25.3129 7.41545 -87.2386
27.4222 3.62509 -87.4002
25.4864 1.65172 -87.5314
45.9901 -6.35677 -86.2823
-242.159 -16.9755 16.6252
249.587 -5.36918 -9.40944
249.111 -2.30258 -11.8806
-169.145 48.1608 43.8383
30.4423 -13.5051 -86.3027
-165.521 47.9291 45.7443
-244.371 -14.4435 14.9725
243.986 6.92783 20.1942
244.544 3.56424 20.2422
-218.53 -34.253 26.9076
-142.146 -69.411 21.2686
-139.63 -70.7398 18.786
-221.096 -32.0566 27.0475
-157.971 -59.8004 33.3569
-205.041 32.4584 39.2842
-154.32 -61.364 32.6011
21.3237 7.30586 87.3782
-119.1 18.4767 75.2726
-116.428 20.5551 75.2455
25.5783 -59.0349 64.6435
29.1136 -57.6649 65.6886
-134.621 54.9986 -50.0036
-136.936 52.5202 -51.8642
-177.098 57.9135 23.4554
-176.714 59.3834 19.8588
-70.389 64.9627 -54.0116
-62.7878 16.918 -83.5172
-66.4003 16.9231 -83.1734
-66.8498 66.4781 -52.7023
124.475 57.7412 50.13
121.043 58.3473 50.4562
-132.441 -69.8472 26.793
-132.815 -68.0013 30.9868
-188.879 35.1121 46.2971
-185.131 37.2804 46.4547
-232.727 13.1729 -30.6498
-60.5566 74.8374 41.1631
-61.8524 76.3623 38.0054
-231.928 16.797 -29.6019
-175.272 -46.957 -42.1659
-178.795 -11.2353 60.86
-181.801 -8.37759 60.2269
-195.83 53.7479 12.6504
-198.385 52.0608 14.6698
-195.137 -6.40556 -55.1455
-196.112 -2.36648 -55.043
-155.761 25.0167 64.4036
-159.481 22.4725 64.2267
-196.211 -54.5515 -7.39847
-193.182 -56.048 -5.79669
-91.538 75.1103 -32.8111
-87.5732 75.4822 -33.2793
-39.2308 -78.9682 -36.3263
-42.7321 -77.6554 -38.6015
-35.7402 20.3965 -84.6853
-119.251 -59.0799 -50.1248
-116.056 -58.3926 -51.8197
-103.566 -58.9135 54.4061
-107.461 -57.2234 55.2781
-176.114 46.8964 -41.8018
26.9042 13.9035 -86.3833
23.8213 15.7358 -86.1795
-175.613 44.5874 -44.4998
-89.4479 -39.5986 72.086
-93.3183 -38.4653 72.0989
-1.70631 -75.0137 -46.0064
2.63271 -75.2496 -45.6141
-158.024 -33.2 -59.8706
-154.737 -36.6344 -58.9111
26.3784 72.6198 48.8383
28.7901 70.5898 51.5713
-166.619 38.7947 53.2922
-169.025 36.4181 54.0366
126.651 60.2615 46.3541
125.018 62.2375 44.2378
55.9291 20.2514 83.3721
-158.163 12.6311 67.2443
-155.548 9.85302 68.4447
-44.5696 72.8555 -46.8281
71.0258 53.0385 -65.6757
-41.9207 74.5387 -44.4165
222.064 -27.8284 -30.5323
225.276 -26.0125 -29.2251
-17.9425 78.7554 -38.7579
-20.7029 77.4953 -41.0609
247.477 -7.06407 13.9944
245.671 -9.0724 16.5072
-182.897 19.8473 57.0492
-181.355 22.6894 56.5906
-56.0981 68.2162 52.0122
-53.7984 70.063 49.808
-221.676 26.386 -32.1174
245.289 -12.7014 14.7128
-123.34 -44.6627 -62.3438
-128.466 -46.9023 -59.3602
-126.786 -44.2474 -61.7911
-219.064 -11.0552 41.791
-206.377 49.8747 -6.48285
-208.062 48.5119 -9.51827
-173.564 -35.141 53.1129
-196.135 -34.8662 -42.645
-56.8601 10.5851 85.0654
-100.046 80.5916 4.85358
-149.824 -21.4717 67.3405
-153.214 -21.7189 66.3196
-106.096 79.7485 2.46347
-103.785 79.9639 5.57173
-208.26 -1.82669 -49.3008
-211.703 -0.429056 -47.5049
7.67608 76.1755 -43.9781
9.26576 74.42 -46.8525
-21.833 85.6504 -18.6986
-24.3548 84.7369 -22.1591
13.0391 74.0314 -47.3554
-209.322 34.9046 -34.0775
-209.441 37.4752 -31.1312
-243.671 12.288 -17.9903
-206.007 40.0827 -30.6852
-237.953 16.7267 23.0658
-240.125 13.5331 22.3944
-198.676 34.6974 41.3217
-44.097 -51.8644 -69.3975
-47.9416 -52.1839 -68.8436
-65.5829 78.0503 -33.5493
-62.512 79.048 -31.8902
-198.914 37.6916 38.4599
-195.387 39.9805 38.3622
193.194 51.8473 -22.0511
191.209 51.6116 -24.5779
-17.4745 71.9424 -50.3081
-15.9449 70.2678 -52.6811
-160.724 -8.6831 67.1263
-158.272 -5.14902 68.1952
-159.182 -12.187 67.0316
-155.591 -13.9546 67.7157
-181.219 -39.3696 -46.6197
-187.07 -34.8953 -47.3482
234.201 -8.19828 31.0077
231.367 -8.83976 33.3482
-185.725 -37.8063 -45.7339
-220.423 -36.332 -21.8072
-223.2 -33.1949 -23.2993
-74.8241 69.3906 47.3656
-199.261 43.361 -31.6655
-202.426 40.507 -32.9612
-79.4734 71.8104 42.5909
-75.6926 71.5673 43.8255
-199.863 -47.1007 -25.1998
-196.405 -49.1628 -24.5818
-156.239 -38.5671 57.1663
-155.218 -34.6084 59.9716
-162.933 56.2425 -36.4776
-159.79 58.0724 -35.2928
245.94 -16.0779 8.95225
246.756 -13.0535 10.9094
-202.196 25.1202 -45.9089
246.469 -16.6406 5.45926
-222.674 -40.7298 -3.8101
-219.563 -42.6766 -4.53662
-225.917 36.4504 -12.9115
-224.093 36.2084 -16.8758
-228.901 -34.8682 10.6495
-231.376 -33.5774 7.89086
-225.472 -37.7615 9.6949
119.606 74.8219 19.8556
-172.164 -51.102 -38.7773
115.412 75.6359 19.8103
47.9024 12.1439 -85.5312
51.491 10.7557 -85.4618
-180.223 -22.18 57.2318
-179.971 52.3137 -32.2771
-165.458 0.844574 66.2689
-168.582 2.82078 65.2425
-181.022 -17.4226 58.5536
36.4528 -59.7572 63.3277
37.7868 -57.2105 65.545
-159.985 -59.9395 -31.9
-182.768 -21.799 -56.3836
-184.316 -18.0323 -57.0929
-11.9611 14.9153 -86.6257
-188.59 -54.9979 19.101
-192.466 -53.1212 19.6698
-145.955 9.32423 -71.056
-143.749 12.1215 -71.1842
-174.396 52.4023 35.6986
-173.45 50.704 38.5982
-187.195 39.701 -43.3314
-231.503 33.4917 -7.79784
-229.097 35.9663 -4.96052
-234.908 30.868 -5.93785
241.404 7.72062 23.4443
239.892 10.8365 24.102
240.61 13.4015 21.8298
-138.88 -61.8305 -39.4917
-138.123 -60.1635 -42.2922
-141.496 -58.252 -43.5831
-200.351 -41.1654 -33.6899
-218.718 20.1126 -38.5061
-52.7215 8.95638 85.5773
-56.68 -81.1833 27.5673
-60.1943 -81.461 25.7778
-152.618 56.1687 41.6819
-153.438 58.037 38.6432
-189.415 -9.90167 -57.0385
-186.068 -8.88184 -58.5354
64.9089 -8.7161 84.5707
67.8931 -7.08784 84.4359
-196.835 -37.2205 40.1893
-200.415 -34.6109 40.3551
-180.668 -48.2459 -37.6839
-174.532 -52.0917 -36.0701
-215.619 -38.509 23.8557
-218.655 -36.4151 23.7599
-178.254 -50.982 -35.4211
-121.7 47.8761 -60.3207
-71.6536 59.2896 60.0013
26.8711 -68.3034 54.6831
24.8099 -66.59 56.8719
-87.2067 -8.61444 -82.0896
-84.0255 -6.31168 -82.7029
-35.2517 85.5217 -16.6703
-38.607 84.9812 -18.4312
-75.4361 59.8175 58.8996
-117.761 48.872 -60.4789
67.1039 -10.9776 -84.0963
63.355 -11.5816 -84.3709
-122.411 44.6702 -62.5621
-76.5595 63.7786 -54.3938
-80.0327 64.0337 -53.4742
-210.937 -46.4386 -11.8322
-207.91 -47.2776 -14.7159
-70.3819 -66.9063 51.5857
-82.7898 61.5438 -55.8319
181.007 57.5719 -20.45
187.795 54.7416 -20.7272
-57.9805 -57.7726 -63.204
-60.2447 -59.9515 -60.8726
185.033 56.5048 -18.9616
-52.2273 4.85142 85.9448
170.803 -60.94 -21.4145
166.657 -61.8364 -22.799
-242.16 -11.2312 20.9366
-241.443 -7.71477 23.3969
231.623 25.8608 -22.5155
229.371 25.1799 -25.8605
225.985 27.6872 -26.9258
-235.384 -18.9702 -24.5115
-234.85 -16.6287 -26.7372
-226.071 27.1586 -27.3722
-222.955 28.4594 -29.1238
-220.771 31.3736 -28.151
-250.634 -7.29621 -0.178279
-176.061 45.2998 43.5533
58.7209 51.217 -68.5468
59.783 48.3866 -70.4639
128.122 68.3795 32.5348
131.612 68.3054 30.9459
-176.956 47.6043 40.5477
-181.056 46.7508 39.3057
18.7051 -86.4181 15.267
142.041 69.3647 -21.5039
141.109 68.3954 -25.0654
23.2386 -86.1703 15.8921
181.098 -44.0246 42.3148
25.6369 -86.6618 12.3797
-189.029 21.6364 -53.8629
-189.448 17.8905 -55.0438
-212.326 -45.0148 14.0791
-120.854 -47.0069 -61.206
-24.3196 -37.2765 79.2594
52.3402 18.5043 -84.0607
55.8529 16.7183 -84.158
-25.2886 -41.1253 77.2943
-119.136 -6.55091 -77.223
-115.756 -7.76755 -77.7377
-200.054 16.4646 50.7254
-215.148 -43.2646 14.3197
-153.451 33.0018 61.4165
-156.88 31.3327 61.2296
-157.692 28.1801 62.4934
-79.9672 -83.431 0.603121
-63.7529 72.4575 -44.68
-62.8961 70.4285 -47.953
-79.8046 -83.3553 -4.02086
-209.642 -18.6827 44.8796
-60.6274 71.0674 47.3647
-205.671 -19.6761 46.6686
-191.284 -46.3889 33.3529
-190.154 -45.0081 35.9355
-195.137 47.319 29.0337
-192.217 -42.6384 37.4498
-97.7197 19.7181 78.6517
-94.1505 20.9563 78.8643
-195.846 -41.8733 35.9822
-247.679 -8.81307 12.483
188.065 -42.0219 40.5953
184.93 -44.2656 39.9693
-127.285 75.4834 7.91807
-123.683 76.0036 9.72403
48.9003 1.66726 86.3045
130.448 15.5876 -73.6047
-179.745 46.5092 -40.3162
198.596 13.1793 52.3603
200.49 9.43253 52.2854
113.373 74.8963 23.6832
109.636 75.3415 24.414
149.575 63.7399 -30.6943
145.748 65.3525 -29.5354
-166.874 -45.6713 -47.4218
129.849 19.3516 -72.837
-209.81 43.7051 -21.0816
-206.95 46.1281 -19.3059
126.475 20.2037 -73.331
-61.9001 -0.391749 85.2921
-59.2062 2.5421 85.489
-53.8625 -2.0314 85.9342
[...]
POINT_DATA 10490
VECTORS F double
2.90044e-08 4.76269e-08 5.07097e-09
1.27199e-07 1.00188e-07 -3.50816e-08
1.21826e-07 6.05222e-07 2.84221e-07
4.39618e-08 3.01598e-09 -2.82789e-08
2.6541e-07 2.40018e-07 -8.50591e-09
1.52089e-07 1.63401e-07 -6.39538e-09
6.55163e-08 2.79007e-08 -6.43088e-08
-1.75992e-06 2.05145e-06 1.09428e-07
9.5232e-07 7.1971e-07 1.42609e-07
1.03876e-06 6.17221e-07 -4.26141e-08
9.69528e-09 5.86994e-08 -3.14168e-08
9.43217e-09 5.02784e-08 -1.67971e-08
1.05062e-07 3.34064e-07 1.69953e-07
-2.20346e-06 3.63709e-06 1.22624e-07
1.47372e-07 1.08323e-07 -7.89689e-09
3.37308e-06 5.40523e-07 -1.73229e-06
4.43744e-06 6.91521e-07 -2.65324e-06
-1.24408e-08 2.1689e-08 8.94711e-09
-1.42155e-08 2.11641e-08 1.10734e-08
-3.71338e-05 4.91678e-06 3.7134e-06
-3.56428e-05 5.25408e-06 3.9035e-06
-3.52661e-06 2.01104e-06 -3.02209e-07
-3.21225e-06 1.47288e-06 -2.51099e-07
2.6653e-08 1.90961e-07 -1.6511e-07
5.1547e-08 2.13006e-07 -1.96513e-07
2.00887e-08 1.34254e-07 8.3044e-08
7.1954e-09 1.12308e-07 7.15883e-08
-3.67091e-08 1.5194e-07 1.95155e-07
-1.41782e-07 1.23236e-07 1.30901e-07
2.38189e-07 1.96839e-07 -1.80992e-07
5.51074e-07 2.56692e-07 9.98402e-08
3.69497e-07 2.77872e-07 -8.51399e-08
1.04522e-07 2.7913e-06 7.81151e-07
-3.25593e-07 1.35568e-06 3.66577e-07
-1.9212e-06 2.90896e-06 -1.85826e-08
1.10432e-08 1.99481e-08 4.23527e-08
0.000136445 3.6027e-05 8.20711e-05
0.000147303 4.0192e-05 8.73652e-05
2.54488e-08 1.20867e-09 -3.87532e-08
2.19946e-08 -1.26513e-09 -1.82353e-08
6.30291e-07 3.38835e-07 1.80837e-08
2.01296e-08 2.06953e-08 4.4904e-08
3.87587e-07 2.60894e-06 5.04888e-07
-1.40288e-06 3.42172e-06 -3.14146e-07
-2.49421e-08 1.5639e-08 -9.54897e-09
-4.07388e-08 3.63485e-08 1.55663e-08
1.31199e-06 8.94066e-07 -5.27898e-08
1.06064e-06 1.96035e-06 4.06053e-07
-3.4358e-08 8.86788e-08 -6.25318e-08
-2.74475e-08 1.0146e-07 -7.60199e-08
5.04538e-08 1.26256e-07 -4.96871e-08
6.94331e-08 1.34988e-07 -4.96173e-08
9.17243e-07 2.24683e-06 6.6162e-07
8.89032e-07 2.13492e-06 7.3226e-07
-2.57283e-08 6.37066e-08 1.96202e-09
-1.86336e-08 5.09664e-08 5.42956e-09
4.33089e-08 6.87995e-08 7.44617e-08
1.57542e-07 4.97377e-08 -7.11142e-08
-1.70029e-08 1.22605e-08 -1.61157e-08
-1.68468e-08 9.17749e-09 -1.54994e-08
-2.64819e-06 3.29954e-06 -2.57098e-07
-2.38607e-06 4.33784e-06 -1.91554e-07
1.2854e-08 6.07169e-08 5.33897e-08
-2.67042e-08 4.30812e-08 7.52894e-08
-7.17829e-09 1.04848e-08 4.76879e-09
1.8268e-05 6.55046e-06 1.45339e-06
-1.33879e-08 2.46183e-08 1.75555e-08
-5.80369e-07 5.31849e-06 -8.00818e-08
2.5067e-07 3.93813e-06 -1.89953e-07
-3.05972e-07 8.36679e-06 7.00327e-07
-3.91674e-06 6.21938e-06 1.07511e-07
-2.3763e-06 4.49969e-06 2.049e-10
-1.23506e-06 2.32397e-06 -2.5181e-07
3.01926e-09 3.25795e-08 3.85629e-08
2.02839e-09 1.18182e-08 -9.2611e-11
-2.8062e-09 5.80233e-09 -8.28063e-09
2.92231e-07 4.09742e-07 -3.12154e-07
1.05893e-06 1.64197e-06 -2.11208e-07
4.3508e-07 5.63083e-07 -3.97278e-07
-2.91326e-10 2.28479e-08 2.13707e-08
-7.81196e-09 9.76953e-09 8.19135e-09
-2.28373e-09 9.80734e-09 1.63906e-09
1.34592e-08 1.17434e-08 2.83159e-08
1.88394e-08 5.75752e-09 3.41958e-08
9.91677e-09 3.47038e-09 2.2083e-08
1.12764e-08 1.49406e-08 2.89717e-08
2.7738e-08 2.57425e-08 6.22261e-08
2.20133e-07 2.79889e-07 -9.06222e-08
3.02979e-08 2.27752e-08 6.04181e-08
3.84644e-07 4.66294e-06 -4.01376e-07
2.12741e-06 2.81396e-06 -2.78642e-07
1.92894e-06 3.32214e-06 -5.42134e-07
-1.89288e-08 1.62431e-07 1.4925e-07
-5.33137e-08 2.39295e-07 2.12952e-07
5.79011e-06 3.98396e-06 2.47349e-06
7.95179e-06 3.03917e-06 5.07261e-07
4.36296e-07 3.62871e-07 -4.92765e-07
1.36949e-06 6.27435e-07 -3.84334e-07
4.38276e-05 2.54138e-05 2.35735e-05
2.7318e-06 7.11718e-07 -1.07257e-07
2.46273e-06 -4.26192e-07 -3.27408e-07
4.50859e-05 2.60233e-05 2.58238e-05
-1.05546e-06 4.4103e-07 -1.87139e-07
-1.12402e-06 4.47602e-07 -1.87479e-07
5.1628e-09 1.15566e-08 3.32412e-08
2.65114e-09 1.59614e-08 3.641e-08
9.76908e-07 5.35996e-07 8.1388e-08
9.50183e-07 6.99363e-07 -9.76994e-08
5.66742e-08 7.6372e-08 -1.98197e-08
7.2084e-05 3.46218e-05 -4.9961e-05
6.62537e-05 3.26209e-05 -5.23418e-05
4.22196e-08 7.99827e-08 4.93614e-09
3.49976e-08 -7.25831e-09 -9.72211e-09
3.68422e-07 3.25497e-07 1.92588e-07
1.92458e-07 1.42125e-07 9.0882e-08
6.86183e-07 3.6712e-07 -2.59413e-07
8.00508e-07 3.82934e-07 -3.36992e-08
9.71338e-09 1.11053e-07 -1.70923e-08
1.20762e-07 1.51722e-07 -5.91855e-08
3.99639e-07 2.45079e-06 -8.33669e-07
1.30775e-06 9.09718e-07 7.92319e-08
3.99826e-09 -7.29593e-10 -7.57649e-09
-1.37283e-10 -3.82521e-10 4.29095e-09
3.30615e-05 1.09089e-05 1.36797e-05
3.42854e-05 9.9656e-06 1.15575e-05
-3.33499e-08 4.49526e-08 -9.33063e-08
-2.32853e-08 5.70801e-08 -1.11667e-07
3.33652e-06 1.39311e-05 3.18292e-06
1.08653e-07 1.35817e-07 -1.91721e-07
1.05247e-07 1.61189e-07 -2.10486e-07
3.67154e-08 1.27458e-07 1.46566e-07
7.01273e-08 1.9776e-07 2.214e-07
2.66977e-06 8.11237e-07 -4.66932e-07
3.26818e-07 7.90233e-06 1.28435e-06
-2.3538e-06 3.93807e-06 6.39409e-07
6.57832e-07 2.61141e-08 -2.91617e-07
1.93185e-07 5.16829e-07 3.13243e-07
2.4324e-07 7.98746e-07 4.64669e-07
-4.98978e-08 7.6582e-08 -1.24635e-07
-4.89544e-08 5.24816e-08 -8.69228e-08
1.0993e-07 2.16346e-07 -1.55485e-07
2.54038e-08 1.38563e-07 -9.43297e-08
-5.54528e-05 2.37339e-05 -3.16237e-05
-5.12459e-05 2.52729e-05 -3.10903e-05
2.6958e-06 1.19859e-06 1.59333e-07
2.29561e-06 1.40922e-06 -7.06638e-08
-5.317e-07 2.15774e-07 -1.02659e-07
-1.57244e-06 5.78268e-08 4.6269e-07
-5.24532e-07 2.66919e-07 -2.17602e-08
8.75283e-07 1.02339e-06 5.97905e-08
2.00831e-07 2.83265e-07 1.50812e-08
4.41012e-05 5.39034e-05 7.87239e-05
-6.6082e-06 3.12772e-06 1.65091e-06
5.0183e-05 5.15623e-05 8.07315e-05
-2.35022e-09 6.97083e-09 -8.44322e-09
-1.51331e-09 5.64623e-09 -6.44868e-09
1.59866e-06 8.47852e-05 0.00017219
1.72467e-05 7.79789e-05 0.000146106
-2.85635e-10 1.14863e-09 1.17628e-09
-6.89332e-10 1.7953e-09 2.2297e-09
3.53954e-07 5.06507e-07 -3.73057e-08
2.87647e-07 5.68478e-07 -1.15087e-07
4.04761e-05 3.04244e-05 -3.45578e-05
3.3887e-05 3.36955e-05 -4.29168e-05
1.95463e-07 9.09948e-08 -9.03528e-08
-2.25313e-09 1.11271e-10 4.68059e-09
2.22554e-07 1.82692e-07 -1.84778e-07
1.64267e-08 1.28146e-07 -1.05594e-07
2.04667e-07 4.98201e-08 -8.70799e-08
1.03913e-08 1.01154e-07 3.34061e-08
5.62531e-07 2.97925e-07 9.98585e-08
6.02024e-07 3.21141e-07 2.58356e-08
7.25133e-08 1.11915e-07 1.03046e-07
7.04237e-08 1.36144e-08 -5.07726e-08
1.43654e-06 4.13485e-06 -3.96985e-07
5.16492e-05 7.72268e-06 2.11323e-06
-2.49167e-08 2.39069e-07 6.94323e-08
-5.61547e-08 3.30118e-07 9.22146e-08
4.16036e-05 7.20577e-06 -1.39e-05
4.64428e-05 8.48595e-06 -1.58739e-05
5.3942e-08 8.95426e-08 -3.11967e-08
6.69574e-08 1.66063e-07 -3.80059e-08
-7.71893e-05 3.43537e-05 5.78545e-05
-5.6359e-05 3.93817e-05 6.11882e-05
0.000402233 4.905e-05 0.000167168
0.000245508 7.39647e-05 0.000249802
-5.82503e-05 2.25934e-05 3.33566e-05
3.02608e-07 2.27589e-07 5.61986e-09
8.45193e-07 4.6813e-07 -1.32545e-07
8.67672e-08 1.43165e-07 -4.59616e-08
7.71681e-07 5.86551e-07 1.31991e-07
6.03567e-08 1.60898e-07 -4.05236e-08
6.71873e-08 1.3635e-07 5.71883e-09
4.00971e-07 -1.59482e-07 3.69899e-07
3.98795e-07 3.04177e-07 -2.58347e-07
3.64773e-07 3.8468e-07 -3.22684e-07
8.18057e-05 3.39254e-05 5.9346e-05
8.23819e-05 3.45444e-05 6.58552e-05
6.67257e-07 -2.09442e-08 4.42987e-07
5.10924e-07 2.80856e-07 2.5835e-08
-8.86175e-08 4.23552e-08 4.5408e-09
-1.21549e-07 6.57674e-08 2.23399e-08
4.26426e-06 6.31973e-05 9.01927e-05
-1.23694e-05 5.80155e-05 7.7841e-05
6.37424e-07 4.0091e-07 2.38698e-07
7.99503e-07 3.31773e-07 2.52208e-07
1.53988e-07 1.61499e-07 7.41184e-08
2.57654e-07 3.4554e-07 1.43674e-07
8.60017e-08 8.026e-08 -1.087e-07
9.87088e-08 6.77456e-08 -9.76627e-08
6.24112e-10 8.75845e-09 1.73214e-09
1.70456e-10 9.23004e-09 2.29612e-09
7.37881e-08 5.47857e-08 -8.19632e-08
1.83125e-09 5.75785e-09 -1.18379e-08
-6.05514e-10 8.21644e-09 -1.0968e-08
5.27111e-05 1.75548e-05 -1.55229e-05
7.91415e-07 6.33119e-07 2.57314e-07
8.18507e-07 5.95285e-07 1.16213e-07
4.39074e-05 1.16656e-05 -9.63779e-06
4.87978e-05 1.70032e-05 -1.74476e-05
3.90786e-09 1.27264e-08 -2.75683e-08
5.10169e-10 6.93221e-09 -1.43567e-08
5.97926e-08 2.17497e-07 1.66729e-07
1.62953e-07 2.05915e-07 1.70452e-07
1.5881e-06 1.15714e-06 9.15745e-07
1.93744e-06 1.09547e-06 7.28678e-07
1.93128e-09 5.75019e-09 3.7974e-09
9.6778e-10 6.26242e-09 4.78319e-09
3.10391e-07 2.20356e-07 -4.67708e-08
1.14966e-09 3.21762e-09 3.39967e-09
-1.49753e-08 1.05644e-08 -5.68534e-09
-1.10693e-08 5.37673e-09 1.50761e-08
2.94154e-07 2.21734e-07 -3.91633e-09
3.78883e-07 2.89234e-07 4.7942e-09
3.55917e-09 3.14225e-09 1.95758e-08
-3.68046e-09 8.80426e-09 2.41274e-08
-1.85942e-09 1.57016e-10 -4.7414e-09
-2.60362e-06 3.40466e-07 6.37182e-07
3.79315e-08 -8.20549e-09 -9.79863e-09
-2.6789e-06 4.34801e-07 2.50712e-07
8.8541e-07 1.67242e-06 2.98167e-07
7.718e-07 1.07887e-06 1.92715e-07
9.56721e-08 2.6857e-07 1.40949e-07
1.69181e-06 5.43233e-07 -2.74381e-07
4.04421e-07 1.94585e-07 1.2113e-07
4.16677e-07 2.78619e-07 1.19753e-07
1.35501e-07 2.93012e-07 1.38453e-07
-3.25605e-08 1.57685e-07 1.51086e-07
-1.54203e-08 1.67666e-07 1.4743e-07
3.21922e-08 1.00746e-08 -3.86891e-08
5.97973e-08 6.19795e-08 -4.76852e-08
1.93755e-07 1.14815e-07 -1.12834e-07
2.30056e-06 1.10054e-05 1.85604e-06
5.35101e-09 6.26368e-09 2.44925e-08
2.01473e-09 5.98241e-09 1.85585e-08
1.09341e-06 7.73832e-07 -1.73401e-07
7.45045e-07 1.16994e-06 1.50449e-08
1.92233e-06 1.25794e-06 -6.96885e-07
1.32195e-06 9.66933e-07 -5.42982e-07
1.07918e-06 1.04489e-06 3.86605e-07
3.13535e-07 2.62134e-07 -1.33332e-08
2.95382e-07 2.37438e-07 5.19183e-08
2.49164e-07 1.98525e-07 -1.74217e-07
-9.38461e-09 1.68968e-08 6.25618e-09
-6.96548e-09 2.07429e-08 -8.48299e-10
-7.7637e-09 2.09994e-08 -2.42745e-09
5.97483e-08 2.69468e-08 -6.79076e-08
2.05775e-08 4.63257e-08 -7.41226e-08
6.57985e-08 9.17101e-08 -1.48724e-07
-3.90945e-09 4.69313e-08 -5.44857e-08
1.27936e-07 1.86341e-07 8.40031e-09
2.50117e-06 6.08995e-06 -4.48736e-07
1.60465e-08 1.62778e-08 5.19689e-08
1.01643e-08 1.5799e-08 5.28248e-08
7.40418e-07 6.48855e-08 2.44392e-07
3.92155e-06 1.33377e-06 -9.6868e-08
1.34058e-07 2.20832e-07 -9.28217e-08
1.74941e-07 1.43714e-07 -8.98744e-08
2.49944e-07 4.98652e-07 2.79023e-08
6.96293e-08 9.28152e-07 7.10522e-08
2.01199e-08 5.20121e-08 6.02238e-08
1.65175e-08 5.48162e-08 5.7044e-08
1.65968e-08 2.31934e-08 -3.94267e-08
1.40299e-08 8.18488e-09 -2.01259e-08
9.81898e-09 4.79524e-09 1.85896e-08
1.01071e-08 1.00081e-08 2.6711e-08
1.04674e-08 1.7705e-08 -3.19241e-08
1.02516e-05 4.71105e-06 1.20696e-06
2.53875e-05 2.50223e-05 -2.10135e-05
-2.71683e-09 1.67119e-07 2.08905e-07
-8.13191e-08 1.39522e-07 1.67703e-07
8.57185e-07 1.6319e-06 -2.82723e-07
8.00363e-07 1.88368e-06 -2.43299e-07
0.000289072 3.97321e-05 0.000128986
0.000265212 4.47912e-05 0.000138501
2.42784e-05 2.50339e-05 -2.1617e-05
9.88064e-06 8.22604e-06 4.29193e-06
-8.91401e-07 7.88276e-07 -1.89979e-07
-9.14477e-07 6.18196e-07 -1.68927e-07
6.31888e-06 4.653e-06 1.80866e-06
3.13611e-05 2.95274e-05 2.92176e-05
2.68425e-05 2.15173e-05 2.08477e-05
7.94394e-10 -1.81606e-09 5.43173e-09
-9.55847e-09 9.09121e-09 -1.26496e-08
-1.00475e-07 5.64591e-08 5.64393e-08
3.05527e-05 1.92866e-05 1.57129e-05
-2.36178e-07 7.01697e-08 -5.8375e-08
-1.86369e-07 8.68584e-08 2.2682e-08
-3.90792e-07 2.63825e-07 -1.97257e-07
-2.29558e-07 1.50069e-07 -1.19978e-07
-2.30641e-07 8.79638e-08 -1.34004e-08
6.97889e-07 5.61384e-06 -2.64991e-07
5.09664e-09 4.2289e-09 -7.05416e-09
5.04757e-09 5.32302e-09 -9.91718e-09
-8.20859e-09 3.00294e-08 4.39224e-09
6.72168e-09 2.56925e-08 1.68743e-08
-7.41949e-09 1.46853e-08 7.53422e-09
-1.68935e-08 2.78231e-08 8.75684e-09
-2.0521e-08 2.49299e-08 4.5591e-09
-1.80139e-08 4.17958e-08 -1.11247e-08
2.80839e-08 1.22844e-08 -3.77981e-08
2.43567e-07 2.79249e-07 3.08383e-08
2.50805e-07 1.50648e-07 -8.77959e-08
1.98061e-07 1.80817e-07 1.14093e-08
-1.54749e-08 6.56109e-08 -8.40172e-09
9.50173e-07 5.1323e-07 -6.36097e-08
-4.05017e-06 3.55717e-06 2.23304e-06
-2.34983e-06 3.72548e-06 2.31412e-06
-1.19946e-06 1.21425e-07 3.23091e-07
-1.0193e-06 -3.26427e-08 6.02784e-07
1.56347e-06 8.0777e-07 -1.13046e-07
1.41704e-06 2.89645e-07 4.54577e-07
-7.63178e-09 5.77435e-09 3.3825e-08
-6.18063e-07 -3.07018e-08 -5.98856e-07
-1.10877e-06 8.14277e-08 -5.4201e-07
-1.12398e-09 8.24921e-10 4.66495e-09
-8.35465e-09 6.56044e-09 1.12009e-08
-5.46457e-09 -2.60789e-10 -4.50641e-10
2.013e-07 4.98285e-07 1.13691e-07
1.42079e-07 4.82516e-07 9.69813e-08
-1.26006e-08 1.21765e-08 1.56376e-08
3.10104e-07 2.21344e-07 -2.44953e-07
-5.92865e-08 2.5257e-07 1.16551e-07
-1.78519e-06 2.45053e-06 4.03348e-07
-1.71014e-06 2.34535e-06 3.2696e-07
-1.34293e-07 2.28196e-07 1.16027e-07
-9.50369e-08 1.07955e-06 -7.362e-08
-3.6301e-08 1.12345e-06 -1.05625e-07
2.8052e-07 5.30078e-07 -3.66321e-08
-1.28162e-08 1.49514e-08 2.1577e-08
1.51894e-06 2.95042e-06 -1.12078e-06
1.8768e-06 1.8785e-06 -3.72582e-07
-2.34898e-07 2.06778e-06 -1.00503e-06
-1.84678e-08 2.09966e-09 -9.6014e-09
4.18095e-05 3.75467e-05 5.35852e-05
3.01857e-05 3.61389e-05 4.82296e-05
2.37241e-09 3.22979e-10 -1.24003e-08
1.37507e-08 6.77845e-08 3.60607e-08
6.35109e-05 3.66129e-05 -4.49818e-05
2.46072e-08 1.02535e-07 5.64898e-08
1.87234e-08 1.96436e-08 4.04603e-08
3.0817e-08 1.69312e-08 4.11625e-08
3.71646e-07 3.76625e-07 -3.08058e-07
2.19138e-08 1.807e-08 3.43367e-08
2.25008e-06 7.39371e-06 -1.51138e-06
4.22254e-06 2.37098e-06 -1.28916e-08
1.22373e-08 4.50691e-08 6.05929e-08
-8.67502e-09 5.19449e-08 1.54218e-08
-1.69696e-08 1.07242e-08 2.07242e-08
-9.52503e-09 2.0511e-09 7.66501e-09
8.37279e-06 1.83727e-06 -1.03664e-06
1.06442e-05 2.70149e-06 -4.53978e-06
-2.41087e-06 1.8094e-06 1.32278e-07
-1.70981e-07 4.447e-07 5.70801e-08
2.65631e-06 1.03784e-06 -2.5261e-07
-5.46327e-08 7.47566e-08 6.548e-09
-2.54275e-08 8.51282e-08 -3.42453e-09
-1.90935e-06 1.21938e-07 7.33434e-07
-2.28582e-06 7.29009e-07 -9.92953e-07
-1.16505e-06 2.93454e-07 -8.56873e-08
-1.37061e-06 1.75354e-07 -4.40053e-07
-4.79953e-08 8.31851e-08 -5.94311e-08
-4.67273e-07 4.33533e-07 1.31984e-08
4.84425e-07 1.72119e-07 -2.33336e-07
4.98708e-07 1.90443e-07 -1.99347e-07
-4.90594e-07 4.51434e-07 2.0788e-08
7.23923e-07 4.98844e-06 8.72159e-08
1.93618e-06 4.15317e-06 4.06481e-08
1.26324e-06 3.35073e-06 1.7613e-07
7.47274e-09 9.78569e-09 3.3621e-08
9.36185e-06 2.00965e-06 5.03505e-07
1.06613e-05 2.32051e-06 -2.13409e-06
-1.31854e-06 6.37837e-06 -1.0977e-06
6.64427e-09 1.97632e-10 1.08773e-08
2.06749e-06 3.8744e-06 8.46733e-08
1.70544e-06 1.19201e-05 6.84038e-06
5.35815e-06 5.67063e-06 2.32794e-06
1.32814e-05 1.1732e-05 5.51061e-06
1.02487e-07 3.47387e-07 6.26298e-08
6.71356e-08 4.7294e-07 4.48464e-08
-2.46629e-07 1.40234e-06 1.56183e-07
-1.11263e-08 7.48053e-07 8.40888e-08
6.65956e-07 2.90411e-07 1.46331e-07
3.03914e-07 4.70146e-07 9.1493e-08
1.96284e-06 6.74056e-07 -7.89994e-09
2.82042e-06 1.25275e-06 5.77113e-07
-2.16799e-08 1.32744e-09 1.91175e-08
-1.88867e-08 -7.94838e-10 1.10537e-08
5.41786e-08 1.83655e-08 -6.97394e-08
4.07673e-08 1.08109e-08 -4.47164e-08
-1.18632e-08 5.81784e-08 8.88773e-08
1.0323e-08 4.63387e-08 9.03526e-08
-9.73573e-09 4.94099e-08 8.29224e-08
2.51888e-07 1.00405e-07 1.76068e-07
3.77571e-07 2.32652e-07 -6.85756e-08
5.35882e-07 2.54972e-07 1.24024e-07
2.26465e-08 6.05339e-08 -6.7862e-08
1.31586e-08 5.80504e-08 -6.1731e-08
-4.70672e-08 5.53707e-07 -3.19428e-07
2.67696e-08 3.20909e-07 -1.89946e-07
-1.12351e-07 2.8566e-06 -5.30125e-07
-7.38921e-07 1.93e-06 -3.59963e-07
-6.57344e-09 4.71433e-08 -4.47999e-08
1.9676e-07 1.72002e-08 -4.42642e-08
-1.56476e-08 6.8991e-09 1.02228e-08
1.01516e-08 2.71699e-08 -4.13424e-08
-1.76766e-06 3.83226e-06 -1.65509e-07
-6.51218e-08 3.52396e-07 -2.61932e-07
-1.19275e-07 3.16077e-07 -2.23389e-07
3.04549e-05 3.64755e-05 3.4372e-05
1.76365e-06 9.19732e-07 1.3597e-06
0.000127492 1.14603e-05 -5.92463e-06
0.000150869 1.32041e-05 -3.30604e-05
0.000100281 1.39644e-05 -5.12358e-05
0.000134158 1.31559e-05 -2.55254e-05
1.82056e-06 8.87561e-07 1.49874e-06
2.90706e-05 2.83054e-05 2.56325e-05
2.61457e-05 2.8698e-05 2.41108e-05
2.74835e-08 2.30673e-08 -5.68626e-08
-1.58957e-08 4.11909e-09 -2.47639e-08
-8.36494e-09 3.1991e-09 -3.52452e-08
3.19532e-08 1.7736e-08 -5.09599e-08
1.58279e-08 1.05053e-08 -3.00799e-08
1.47588e-07 2.31517e-07 7.16001e-08
1.1184e-07 3.51947e-07 2.02871e-07
-7.12251e-07 1.09674e-07 2.25639e-07
-2.60784e-05 8.64934e-06 -7.80289e-06
-2.26046e-05 1.41291e-05 -1.57699e-05
-8.64289e-07 7.98256e-07 -2.21753e-07
1.83909e-07 1.91861e-07 -1.5087e-07
3.16471e-07 3.46155e-07 9.42208e-08
1.68283e-07 4.72049e-07 -2.49158e-07
1.62798e-07 2.10261e-07 -1.38412e-07
8.40194e-08 6.19984e-09 5.48261e-08
6.93766e-08 4.04675e-08 9.41151e-08
4.53017e-08 2.54634e-08 6.34247e-08
1.27672e-06 1.65756e-06 -1.18436e-07
1.40757e-06 1.91178e-06 -1.20787e-07
-5.29169e-05 2.27849e-05 -3.35355e-05
-1.08301e-07 2.32944e-07 5.50869e-09
2.08976e-08 1.11701e-08 2.68477e-08
-2.29289e-08 5.22208e-08 9.45831e-08
6.77846e-07 1.99388e-06 -2.15244e-07
7.01766e-07 1.3435e-06 -1.71956e-07
-6.34644e-08 1.07191e-07 -2.0276e-09
1.01458e-07 1.54346e-07 -4.33888e-09
-1.22032e-07 1.84299e-07 -1.36001e-08
-2.23583e-05 1.21818e-06 -1.42628e-06
3.4212e-09 1.15452e-07 -5.56612e-08
-3.78631e-09 9.87937e-08 -4.90454e-08
-7.73705e-06 -1.31836e-06 -3.39071e-06
7.97738e-07 7.34026e-07 -2.54183e-07
-1.61254e-05 5.10241e-06 5.18886e-06
-7.70644e-09 7.1155e-08 -1.77148e-09
1.74331e-06 6.21277e-07 1.78288e-07
1.85149e-06 5.19123e-07 4.37079e-07
1.78627e-09 5.25262e-08 -2.49917e-08
-5.60457e-09 5.63688e-08 1.86846e-08
9.82063e-08 1.68006e-07 -9.17342e-08
6.82783e-09 -1.1314e-09 -1.35004e-08
7.46597e-09 4.35573e-09 -2.46025e-08
4.12645e-07 4.21422e-07 -1.06748e-07
4.93411e-07 3.6076e-07 4.86768e-08
2.78506e-06 2.32063e-06 9.82668e-07
3.7677e-05 4.36426e-05 5.61728e-05
3.46549e-05 4.39818e-05 5.18829e-05
1.17224e-08 6.47331e-10 -3.4982e-09
-7.99993e-09 5.81944e-10 -1.53429e-08
2.14856e-05 3.37182e-05 3.80218e-05
3.22623e-07 9.87829e-08 1.31871e-07
1.76342e-07 1.41249e-07 1.24671e-08
-1.32221e-08 3.99974e-08 2.9431e-09
-7.8867e-08 1.63933e-07 1.47145e-07
-7.6087e-08 1.79931e-07 1.47863e-07
-5.73212e-07 3.22398e-06 2.66211e-07
-8.26215e-08 4.33403e-08 3.61516e-08
-7.58599e-09 9.35206e-08 7.81694e-08
-6.89344e-05 3.89176e-05 -6.02199e-05
-5.25322e-05 3.15754e-05 -4.52322e-05
-7.23154e-07 3.23525e-06 2.79135e-07
1.06238e-06 1.264e-06 -2.63177e-07
-2.51194e-07 2.68119e-06 3.52829e-07
1.49847e-10 9.75604e-09 -1.67474e-08
7.43061e-08 7.24502e-07 -2.43032e-07
-1.11524e-05 3.68363e-05 -3.59529e-05
2.8225e-07 3.46219e-07 -3.75292e-08
9.40299e-07 6.3162e-07 6.35214e-07
5.0615e-08 8.98413e-08 -4.40505e-08
-2.06097e-08 2.96246e-08 1.78662e-08
6.15215e-09 2.11102e-09 -6.29766e-09
-2.47543e-09 3.05769e-09 -1.82712e-08
-1.41168e-05 2.33706e-05 -2.28643e-05
-1.98463e-08 3.94576e-08 5.54301e-08
1.33368e-06 4.93629e-07 -2.1101e-07
-2.64685e-09 -1.30917e-09 8.64104e-10
5.48963e-08 1.03218e-07 1.13537e-07
1.38614e-08 4.13557e-09 1.91463e-08
2.39588e-05 2.73013e-05 -1.90826e-05
2.50081e-07 8.88165e-08 -1.02194e-07
1.07115e-05 3.027e-05 -2.48983e-05
0.000660881 2.5565e-05 -0.000172421
0.000674453 3.14084e-05 -0.000158442
1.61767e-08 7.31469e-08 7.2632e-08
-5.58395e-05 7.61552e-05 -0.000193523
1.55641e-08 8.32521e-08 7.07849e-08
-6.11426e-08 7.33525e-08 1.14802e-08
-6.93818e-08 5.41164e-08 -7.84179e-09
3.69857e-08 1.15957e-07 1.00137e-07
1.02492e-06 1.09632e-06 -3.40501e-07
1.10638e-08 4.8482e-09 -1.45666e-08
3.29007e-07 2.53205e-07 -8.22581e-08
3.76382e-05 4.91245e-05 -5.28746e-05
3.26381e-07 1.83122e-07 6.08901e-08
3.42113e-07 1.53642e-07 1.2634e-07
3.38915e-07 1.74309e-07 1.04926e-07
2.9904e-05 4.95691e-05 7.11969e-05
-9.74063e-08 5.21975e-08 -1.99877e-08
-8.57788e-08 4.55604e-08 -4.63537e-08
-1.70593e-07 1.11531e-07 -1.71252e-08
-3.01346e-07 2.62518e-07 -7.27457e-08
3.40832e-05 5.13264e-05 7.13992e-05
7.95897e-06 2.26177e-06 4.90208e-08
1.57446e-06 5.92701e-06 -3.30113e-06
1.4342e-06 4.97456e-06 -2.61718e-06
0.00040021 3.42207e-05 -0.000160682
0.000388928 3.50071e-05 -0.000140684