# vtk DataFile Version 2.0
S, Created by Mohamad Ibrahim Cheikh
ASCII
DATASET UNSTRUCTURED_GRID
POINTS 10490 double
-223.577 20.3385 -34.7914
-223.732 23.2837 -32.7643
-130.493 -29.3189 69.2792
-194.384 -37.8826 -41.0224
-207.476 29.5034 40.042
-235.88 27.395 13.4743
-191.276 -39.7123 -41.081
14.4339 -3.16542 87.7979
-191.085 39.2101 -41.668
-193.427 36.9223 -42.4281
-251.147 3.21128 -3.38019
-251.007 5.46156 -0.714601
-204.328 29.2937 -42.1238
18.6389 -1.57217 87.7439
-201.231 30.362 -43.1793
-151.379 68.7313 -14.643
-148.602 69.9394 -12.2018
241.381 21.7602 -11.7088
240.378 24.3443 -8.78246
40.03 72.831 -47.3652
43.8506 72.1329 -48.0148
45.4796 -3.23012 -86.4889
49.336 -1.53311 -86.2766
-145.563 -45.498 -55.4959
-142.059 -46.9229 -55.4211
-191.797 -27.3668 49.913
-189.472 -30.0447 49.4582
-64.3391 -67.8385 51.3336
-66.4781 -66.0181 53.3343
-121.232 -41.6827 -64.8627
-205.5 44.6029 24.1722
-208.439 41.8667 25.9228
-64.8773 -22.6347 81.9534
-61.2371 -23.9516 81.922
44.3429 4.14105 86.5224
-201.399 -44.9179 27.5759
-53.9072 82.2373 -25.0049
-50.9388 81.8371 -27.0002
-109.541 -78.4117 -11.2478
-105.515 -79.2424 -10.078
-195.506 42.6344 35.3084
-200.947 -43.0035 30.8381
-54.4327 -15.3659 84.5289
3.539 8.22402 87.6061
226.255 36.0723 -13.2452
223.494 37.2784 -15.4584
-147.015 22.4091 -67.7915
-143.85 23.6561 -68.1978
-167.021 -43.0251 -49.7748
-163.502 -43.4801 -50.799
-215.267 -7.16039 -44.9367
-215.168 -3.16467 -45.4512
-105.648 -17.6522 77.8838
-104.112 -21.1874 77.253
-247.959 -12.5242 7.72451
-247.222 -12.2254 10.5722
-226.225 -18.8476 33.5123
-129.027 -40.8343 -63.5479
238.447 4.0754 -27.6832
236.191 2.11794 -30.1591
30.7194 -3.77724 -87.2594
26.7439 -2.05747 -87.4769
-224.961 -22.5411 32.2494
-47.6601 -75.8726 41.3431
-235.553 -26.7707 15.3058
-110.459 51.1099 -60.3157
-237.919 -25.2896 13.1986
-16.8339 -1.54163 -87.7891
-20.0221 -4.06686 -87.6264
25.3125 7.42376 -87.2379
27.4183 3.63128 -87.4001
25.484 1.6562 -87.5314
45.9889 -6.35445 -86.2826
-242.159 -16.9755 16.6252
249.587 -5.36917 -9.40944
249.111 -2.30258 -11.8806
-169.145 48.1612 43.838
30.4434 -13.5034 -86.3029
-165.521 47.9296 45.7439
-244.371 -14.4434 14.9725
243.986 6.92784 20.1942
244.544 3.56425 20.2422
-218.53 -34.253 26.9076
-142.146 -69.411 21.2686
-139.63 -70.7398 18.786
-221.096 -32.0566 27.0475
-157.971 -59.8003 33.357
-205.041 32.4586 39.2841
-154.32 -61.364 32.6011
21.324 7.31051 87.3778
-119.098 18.4796 75.2723
-116.426 20.5585 75.2449
25.5783 -59.0347 64.6437
29.1136 -57.6647 65.6888
-134.615 55.0026 -50.0011
-136.928 52.5233 -51.8637
-177.097 57.9139 23.4549
-176.713 59.384 19.8584
-70.3462 64.9879 -53.9881
-62.7851 16.9187 -83.5173
-66.3979 16.9227 -83.1737
-66.8059 66.5042 -52.6761
124.474 57.7417 50.1299
121.041 58.3477 50.4561
-132.441 -69.8472 26.793
-132.815 -68.0013 30.9868
-188.878 35.1126 46.2972
-185.13 37.2811 46.4546
-232.727 13.1729 -30.6498
-60.4869 74.8715 41.1135
-61.7881 76.3946 37.9533
-231.928 16.7971 -29.6019
-175.272 -46.957 -42.1659
-178.795 -11.2349 60.8602
-181.801 -8.37745 60.227
-195.829 53.7482 12.6502
-198.385 52.0612 14.6697
-195.137 -6.40545 -55.1456
-196.112 -2.36633 -55.0431
-155.76 25.0192 64.4028
-159.48 22.4735 64.2268
-196.211 -54.5515 -7.39847
-193.182 -56.048 -5.79668
-91.5054 75.121 -32.7978
-87.5394 75.4922 -33.2675
-39.2309 -78.9681 -36.3264
-42.7321 -77.6553 -38.6016
-35.737 20.4103 -84.6821
-119.251 -59.0797 -50.125
-116.056 -58.3924 -51.8199
-103.566 -58.9133 54.4063
-107.461 -57.2231 55.2784
-176.112 46.8972 -41.8023
26.9045 13.9113 -86.382
23.8189 15.7397 -86.1789
-175.612 44.5874 -44.5001
-89.4477 -39.598 72.0864
-93.318 -38.4645 72.0994
-1.70636 -75.0136 -46.0065
2.63266 -75.2496 -45.6142
-158.024 -33.1997 -59.8708
-154.737 -36.6342 -58.9112
26.324 72.6431 48.8072
28.7398 70.6146 51.5408
-166.617 38.7959 53.2923
-169.023 36.4196 54.0365
126.651 60.2617 46.354
125.016 62.2376 44.2383
55.9286 20.2516 83.3721
-158.162 12.6321 67.2443
-155.548 9.8533 68.4447
-44.5252 72.9092 -46.7497
71.0193 53.0415 -65.6741
-41.871 74.5904 -44.3353
222.064 -27.8284 -30.5323
225.276 -26.0125 -29.2251
-17.9368 78.8378 -38.5902
-20.6838 77.572 -40.9171
247.477 -7.06406 13.9944
245.671 -9.0724 16.5072
-182.897 19.8478 57.0491
-181.355 22.69 56.5904
-56.0576 68.2471 51.9769
-53.7642 70.097 49.7646
-221.676 26.3861 -32.1175
245.289 -12.7014 14.7128
-123.34 -44.6625 -62.344
-128.466 -46.9021 -59.3603
-126.786 -44.2473 -61.7912
-219.064 -11.055 41.791
-206.376 49.875 -6.48275
-208.062 48.5122 -9.51823
-173.564 -35.1409 53.113
-196.134 -34.8662 -42.6451
-56.8587 10.5892 85.065
-99.9955 80.5992 4.85546
-149.824 -21.4714 67.3405
-153.214 -21.7185 66.3197
-106.055 79.7556 2.44996
-103.739 79.9722 5.55643
-208.26 -1.82659 -49.3008
-211.703 -0.428881 -47.5049
7.59866 76.2093 -43.9212
9.20873 74.4586 -46.7924
-21.427 85.6969 -18.5426
-24.0998 84.8078 -21.9207
12.9803 74.0542 -47.3218
-209.322 34.9048 -34.0774
-209.44 37.4756 -31.1313
-243.671 12.2881 -17.9903
-206.006 40.0833 -30.6851
-237.953 16.7269 23.0657
-240.125 13.5333 22.3944
-198.676 34.6973 41.3221
-44.0965 -51.8641 -69.3977
-47.9412 -52.1835 -68.8439
-65.502 78.0836 -33.4911
-62.4302 79.0817 -31.8261
-198.913 37.6915 38.4603
-195.386 39.9808 38.3622
193.194 51.8474 -22.051
191.209 51.6116 -24.5779
-17.4705 72.0046 -50.2191
-15.957 70.3251 -52.6043
-160.724 -8.6827 67.1266
-158.272 -5.14868 68.1955
-159.182 -12.1868 67.0316
-155.59 -13.9542 67.7159
-181.218 -39.3695 -46.6198
-187.07 -34.8953 -47.3483
234.201 -8.19827 31.0077
231.367 -8.83975 33.3482
-185.725 -37.8062 -45.734
-220.423 -36.332 -21.8072
-223.2 -33.1948 -23.2993
-74.7728 69.4081 47.3499
-199.261 43.3617 -31.6652
-202.425 40.5076 -32.961
-79.4307 71.8221 42.5811
-75.6451 71.5842 43.8078
-199.863 -47.1007 -25.1999
-196.405 -49.1628 -24.5818
-156.239 -38.5669 57.1664
-155.218 -34.6082 59.9717
-162.931 56.2436 -36.4767
-159.789 58.0735 -35.2921
245.94 -16.0779 8.95226
246.756 -13.0535 10.9094
-202.196 25.1205 -45.9089
246.469 -16.6406 5.45927
-222.674 -40.7298 -3.81011
-219.563 -42.6766 -4.5366
-225.917 36.4506 -12.9115
-224.092 36.2087 -16.8758
-228.9 -34.8682 10.6496
-231.376 -33.5774 7.89089
-225.472 -37.7615 9.69489
119.603 74.8222 19.8562
-172.164 -51.102 -38.7773
115.41 75.6363 19.8105
47.9032 12.1455 -85.5309
51.4918 10.7568 -85.4616
-180.222 -22.1798 57.232
-179.969 52.3143 -32.2773
-165.458 0.844772 66.269
-168.582 2.82106 65.2426
-181.022 -17.4223 58.5538
36.4528 -59.757 63.3278
37.7867 -57.2103 65.5451
-159.985 -59.9395 -31.9001
-182.768 -21.7989 -56.3837
-184.315 -18.0322 -57.093
-11.9589 14.9262 -86.6239
-188.59 -54.9979 19.101
-192.466 -53.1212 19.6698
-145.954 9.32501 -71.0561
-143.748 12.1226 -71.1842
-174.394 52.4036 35.6979
-173.448 50.7049 38.5977
-187.194 39.7021 -43.331
-231.503 33.492 -7.79785
-229.097 35.9666 -4.96047
-234.907 30.8682 -5.93804
241.404 7.72064 23.4443
239.892 10.8365 24.102
240.61 13.4015 21.8298
-138.88 -61.8305 -39.4918
-138.123 -60.1634 -42.2922
-141.496 -58.2519 -43.5833
-200.351 -41.1653 -33.69
-218.718 20.1127 -38.5061
-52.719 8.96248 85.5769
-56.68 -81.1832 27.5674
-60.1943 -81.461 25.7779
-152.618 56.1688 41.6821
-153.434 58.0384 38.6431
-189.415 -9.90144 -57.0386
-186.068 -8.8817 -58.5355
64.9092 -8.7156 84.5708
67.8931 -7.08691 84.436
-196.835 -37.2204 40.1893
-200.415 -34.6108 40.3551
-180.668 -48.2459 -37.6839
-174.532 -52.0917 -36.0701
-215.619 -38.509 23.8558
-218.655 -36.415 23.7599
-178.254 -50.982 -35.4211
-121.689 47.8808 -60.3195
-71.6283 59.3143 59.9806
26.8711 -68.3033 54.6833
24.8098 -66.5898 56.8721
-87.2059 -8.6128 -82.0899
-84.0247 -6.30978 -82.7031
-34.9657 85.5596 -16.5488
-38.3458 85.0243 -18.2985
-75.4119 59.842 58.8785
-117.751 48.8802 -60.4746
67.103 -10.9768 -84.0965
63.354 -11.581 -84.3711
-122.405 44.6748 -62.5602
-76.5283 63.8074 -54.3653
-80.0058 64.0549 -53.4537
-210.937 -46.4386 -11.8322
-207.91 -47.2776 -14.7159
-70.382 -66.9062 51.5857
-82.7597 61.5629 -55.8163
181.007 57.572 -20.45
187.795 54.7417 -20.7271
-57.9809 -57.7723 -63.2042
-60.2449 -59.9513 -60.8727
185.032 56.5049 -18.9616
-52.2266 4.85704 85.9446
170.803 -60.94 -21.4145
166.657 -61.8364 -22.799
-242.16 -11.2312 20.9366
-241.443 -7.71475 23.3969
231.623 25.8608 -22.5155
229.371 25.1799 -25.8605
225.985 27.6872 -26.9258
-235.384 -18.9702 -24.5115
-234.85 -16.6287 -26.7372
-226.071 27.1589 -27.3721
-222.954 28.4596 -29.1239
-220.77 31.3738 -28.151
-250.634 -7.29613 -0.178288
-176.06 45.3004 43.5532
58.7169 51.2205 -68.5446
59.7807 48.3903 -70.4617
128.121 68.3796 32.5351
131.611 68.3054 30.9465
-176.954 47.6051 40.5476
-181.055 46.751 39.3062
18.7051 -86.4181 15.2671
142.041 69.3647 -21.5045
141.108 68.3955 -25.0659
23.2386 -86.1703 15.8921
181.098 -44.0246 42.3148
25.6369 -86.6618 12.3797
-189.028 21.6369 -53.8628
-189.448 17.891 -55.0437
-212.326 -45.0148 14.0791
-120.853 -47.0067 -61.2063
-24.3196 -37.2763 79.2595
52.3384 18.5067 -84.0603
55.8512 16.7206 -84.1577
-25.2887 -41.1251 77.2945
-119.136 -6.54981 -77.2231
-115.757 -7.7664 -77.7378
-200.053 16.4652 50.7254
-215.148 -43.2646 14.3197
-153.45 33.0048 61.4153
-156.879 31.3346 61.2292
-157.693 28.1822 62.4924
-79.9672 -83.431 0.60311
-63.7109 72.4947 -44.6269
-62.8659 70.4643 -47.9053
-79.8046 -83.3553 -4.02087
-209.642 -18.6827 44.8796
-60.5657 71.1032 47.3206
-205.671 -19.676 46.6687
-191.284 -46.3889 33.3529
-190.154 -45.008 35.9355
-195.137 47.3194 29.0334
-192.217 -42.6384 37.4499
-97.7174 19.7255 78.6502
-94.1463 20.9587 78.8642
-195.846 -41.8733 35.9823
-247.679 -8.81302 12.483
188.065 -42.0219 40.5953
184.93 -44.2656 39.9693
-127.277 75.4852 7.91706
-123.673 76.0063 9.71952
48.8979 1.66907 86.3046
130.448 15.5881 -73.6047
-179.742 46.5103 -40.3164
198.596 13.1793 52.3603
200.49 9.43261 52.2854
113.371 74.8964 23.6839
109.634 75.3422 24.4131
149.573 63.7402 -30.6944
145.746 65.3527 -29.5358
-166.874 -45.6712 -47.4219
129.849 19.352 -72.837
-209.81 43.7053 -21.0818
-206.949 46.1283 -19.3061
126.474 20.2041 -73.331
-61.8994 -0.386732 85.2922
-59.2043 2.54627 85.4891
-53.8612 -2.02803 85.9344
[...]
POINT_DATA 10490
VECTORS F double
2.43373e-08 4.36363e-08 6.3933e-09
1.32993e-07 1.00943e-07 -3.94107e-08
1.25065e-07 6.4241e-07 3.00703e-07
5.00915e-08 3.84201e-10 -2.94075e-08
2.79961e-07 2.56242e-07 -1.12207e-08
1.68898e-07 1.81683e-07 -7.49273e-09
7.41903e-08 2.91906e-08 -7.05029e-08
-1.79053e-06 2.03375e-06 1.0936e-07
9.90548e-07 7.57564e-07 1.56762e-07
1.08982e-06 6.47696e-07 -4.4605e-08
1.10921e-08 6.69976e-08 -3.65068e-08
1.04664e-08 5.59441e-08 -1.91961e-08
1.03139e-07 3.57458e-07 1.87353e-07
-2.24045e-06 3.62194e-06 1.23163e-07
1.47351e-07 1.10664e-07 -6.24676e-09
3.38609e-06 5.43653e-07 -1.73386e-06
4.4495e-06 6.93156e-07 -2.66123e-06
-1.30839e-08 2.33731e-08 1.04384e-08
-1.50281e-08 2.27183e-08 1.26407e-08
-3.59926e-05 5.18418e-06 4.24719e-06
-3.45542e-05 5.23524e-06 4.00125e-06
-3.52745e-06 1.99744e-06 -3.01694e-07
-3.21274e-06 1.45167e-06 -2.50721e-07
2.86874e-08 2.07728e-07 -1.79511e-07
5.45476e-08 2.3168e-07 -2.13267e-07
1.82053e-08 1.48685e-07 9.00756e-08
4.07078e-09 1.25375e-07 7.80635e-08
-3.92771e-08 1.64218e-07 2.10987e-07
-1.58083e-07 1.30232e-07 1.37075e-07
2.47851e-07 2.07345e-07 -1.89956e-07
5.78566e-07 2.68069e-07 1.07494e-07
3.83727e-07 2.92474e-07 -9.46766e-08
9.73979e-08 2.85715e-06 7.98549e-07
-3.47998e-07 1.38498e-06 3.73073e-07
-1.92575e-06 2.89345e-06 -1.76517e-08
1.20946e-08 2.34709e-08 4.90342e-08
0.000132618 3.39176e-05 7.65446e-05
0.000144104 3.83254e-05 8.28777e-05
3.06374e-08 1.11482e-09 -4.4286e-08
2.63773e-08 -1.68119e-09 -2.05827e-08
6.52139e-07 3.55933e-07 1.22699e-08
2.24597e-08 2.42504e-08 5.17238e-08
3.87222e-07 2.64968e-06 5.12188e-07
-1.40964e-06 3.39079e-06 -3.11338e-07
-2.58561e-08 1.58717e-08 -1.08359e-08
-4.27276e-08 3.82347e-08 1.65857e-08
1.3306e-06 9.08964e-07 -5.2804e-08
1.07031e-06 1.9967e-06 4.16217e-07
-4.19454e-08 9.74449e-08 -6.69941e-08
-3.49316e-08 1.10737e-07 -8.10133e-08
5.37261e-08 1.39629e-07 -5.37439e-08
7.29464e-08 1.48746e-07 -5.26191e-08
9.40371e-07 2.32157e-06 6.82337e-07
9.35162e-07 2.21867e-06 7.6278e-07
-3.1741e-08 7.79775e-08 1.52061e-09
-2.27882e-08 6.10631e-08 5.24906e-09
4.92586e-08 8.0878e-08 8.61783e-08
1.67631e-07 4.48302e-08 -7.04716e-08
-1.90289e-08 1.33862e-08 -1.80901e-08
-1.853e-08 9.40512e-09 -1.71009e-08
-2.67148e-06 3.27105e-06 -2.5674e-07
-2.40973e-06 4.29457e-06 -1.91206e-07
1.27974e-08 7.18054e-08 6.10979e-08
-3.07561e-08 4.69302e-08 8.17825e-08
-9.05762e-09 1.18841e-08 3.68421e-09
1.80026e-05 6.57941e-06 1.53881e-06
-1.66503e-08 2.97905e-08 2.02803e-08
-5.93402e-07 5.29936e-06 -7.91267e-08
2.29926e-07 3.93679e-06 -1.89141e-07
-3.42819e-07 8.23814e-06 6.88867e-07
-3.89295e-06 6.13386e-06 1.05328e-07
-2.386e-06 4.45634e-06 -7.29755e-10
-1.24505e-06 2.31273e-06 -2.51573e-07
3.60011e-09 3.83156e-08 4.54773e-08
2.39738e-09 1.33242e-08 2.25358e-10
-3.28697e-09 5.9482e-09 -9.5573e-09
2.76879e-07 4.17506e-07 -3.27915e-07
1.07532e-06 1.63994e-06 -2.10154e-07
4.2333e-07 5.80406e-07 -4.20625e-07
-2.10286e-10 2.62246e-08 2.48121e-08
-8.99424e-09 1.09025e-08 9.55567e-09
-2.5514e-09 1.10486e-08 1.8209e-09
1.54096e-08 1.37557e-08 3.28208e-08
2.14058e-08 5.95507e-09 3.69429e-08
1.11906e-08 3.49376e-09 2.33317e-08
1.27916e-08 1.69571e-08 3.28833e-08
3.1291e-08 2.87123e-08 6.96117e-08
2.28259e-07 2.99397e-07 -1.01537e-07
3.35427e-08 2.50884e-08 6.66553e-08
3.59418e-07 4.62331e-06 -3.9755e-07
2.14801e-06 2.86591e-06 -2.87505e-07
1.94285e-06 3.37879e-06 -5.5512e-07
-2.11943e-08 1.69293e-07 1.55628e-07
-5.78386e-08 2.49601e-07 2.22246e-07
5.79149e-06 3.98176e-06 2.47111e-06
7.96264e-06 3.04013e-06 5.05016e-07
4.24222e-07 3.65107e-07 -5.09408e-07
1.39522e-06 6.39236e-07 -3.9158e-07
4.19969e-05 2.51835e-05 2.36149e-05
2.7019e-06 7.34973e-07 -9.97851e-08
2.43625e-06 -4.47446e-07 -3.29143e-07
4.28364e-05 2.62292e-05 2.64633e-05
-1.02863e-06 4.26335e-07 -1.78365e-07
-1.09363e-06 4.28265e-07 -1.74041e-07
4.74508e-09 1.21624e-08 3.45715e-08
1.55615e-09 1.68591e-08 3.78081e-08
1.02245e-06 5.58062e-07 8.74126e-08
9.9191e-07 7.28134e-07 -1.0042e-07
6.0854e-08 8.27149e-08 -2.09927e-08
6.77235e-05 3.3806e-05 -4.93649e-05
6.28423e-05 3.20496e-05 -5.19854e-05
4.16383e-08 8.60884e-08 8.94357e-09
3.93561e-08 -1.20243e-08 -6.63432e-09
3.99488e-07 3.50911e-07 2.08455e-07
2.03765e-07 1.44439e-07 9.53871e-08
7.10079e-07 3.8273e-07 -2.80419e-07
8.39813e-07 4.012e-07 -3.34172e-08
3.87292e-09 1.18172e-07 -1.53942e-08
1.27675e-07 1.62202e-07 -6.26564e-08
3.82561e-07 2.54606e-06 -8.7583e-07
1.3372e-06 9.3705e-07 7.86177e-08
5.13031e-09 -9.75304e-10 -9.44341e-09
-5.9604e-10 -3.80666e-10 6.14601e-09
3.22485e-05 1.04828e-05 1.29945e-05
3.35402e-05 1.00697e-05 1.20452e-05
-3.75568e-08 4.7998e-08 -9.93716e-08
-2.60835e-08 6.11483e-08 -1.19474e-07
3.17811e-06 1.36859e-05 3.13441e-06
1.17396e-07 1.47191e-07 -2.07675e-07
1.13825e-07 1.73435e-07 -2.26639e-07
3.69261e-08 1.33872e-07 1.53562e-07
7.52348e-08 2.11433e-07 2.36771e-07
2.7593e-06 8.28646e-07 -4.93565e-07
2.6059e-07 7.74316e-06 1.25692e-06
-2.37691e-06 3.82368e-06 6.17916e-07
6.62448e-07 1.42636e-08 -3.05743e-07
2.03741e-07 5.31646e-07 3.22985e-07
2.60308e-07 8.35109e-07 4.86766e-07
-5.53808e-08 8.04778e-08 -1.30964e-07
-5.44209e-08 5.61951e-08 -9.30882e-08
1.17483e-07 2.30765e-07 -1.65923e-07
2.57041e-08 1.47323e-07 -9.98753e-08
-5.36371e-05 2.28927e-05 -3.05309e-05
-4.94254e-05 2.4364e-05 -3.00061e-05
2.78147e-06 1.24731e-06 1.56633e-07
2.3798e-06 1.4608e-06 -7.322e-08
-5.13449e-07 2.0372e-07 -9.30843e-08
-1.53722e-06 4.67344e-08 4.66109e-07
-5.32013e-07 2.61338e-07 -1.97851e-08
9.08806e-07 1.05664e-06 6.31915e-08
1.98891e-07 2.8237e-07 1.46777e-08
4.48687e-05 5.34677e-05 7.81542e-05
-6.4226e-06 2.98811e-06 1.563e-06
4.92913e-05 5.18652e-05 8.15593e-05
-2.50807e-09 7.95374e-09 -9.47928e-09
-1.6101e-09 6.39869e-09 -7.21271e-09
9.70742e-06 8.02752e-05 0.000163445
2.08484e-05 7.54977e-05 0.000141841
-3.73754e-10 7.90988e-10 1.1957e-09
-8.39076e-10 1.67084e-09 2.43631e-09
3.6407e-07 5.35926e-07 -4.35657e-08
2.91771e-07 6.00271e-07 -1.26214e-07
4.06898e-05 3.14377e-05 -3.59056e-05
3.46554e-05 3.44174e-05 -4.38954e-05
2.06104e-07 9.00204e-08 -1.00166e-07
-2.9145e-09 -3.60921e-10 5.62593e-09
2.35033e-07 1.91108e-07 -1.93831e-07
1.27397e-08 1.32355e-07 -1.07946e-07
2.17022e-07 4.58651e-08 -8.73552e-08
6.35324e-09 1.1571e-07 3.46713e-08
5.88956e-07 3.12644e-07 1.10014e-07
6.29291e-07 3.37264e-07 3.49603e-08
7.99942e-08 1.231e-07 1.13443e-07
7.99134e-08 1.17795e-08 -5.46196e-08
1.45475e-06 4.09244e-06 -3.90401e-07
4.95936e-05 7.43548e-06 1.61948e-06
-3.41043e-08 2.52014e-07 7.10593e-08
-6.63963e-08 3.49324e-07 9.56101e-08
4.05222e-05 7.0007e-06 -1.31371e-05
4.4823e-05 8.14346e-06 -1.47497e-05
5.39627e-08 9.46447e-08 -3.14021e-08
7.00732e-08 1.81647e-07 -3.98549e-08
-7.7418e-05 3.32706e-05 5.60889e-05
-5.75034e-05 3.80403e-05 5.91461e-05
0.000408374 4.40191e-05 0.000145658
0.000263654 6.79326e-05 0.00022733
-5.90606e-05 2.29162e-05 3.38781e-05
3.11498e-07 2.35235e-07 6.73791e-09
8.97025e-07 4.93264e-07 -1.45007e-07
9.7486e-08 1.62999e-07 -5.02278e-08
8.12097e-07 6.22275e-07 1.45419e-07
6.56245e-08 1.83229e-07 -5.00416e-08
7.48107e-08 1.54974e-07 4.49619e-09
4.1677e-07 -1.80235e-07 3.9664e-07
4.22256e-07 3.12401e-07 -2.66318e-07
3.87569e-07 3.96835e-07 -3.3384e-07
8.0161e-05 3.27816e-05 5.72345e-05
8.151e-05 3.30499e-05 6.25467e-05
6.98287e-07 -3.45645e-08 4.75998e-07
5.22434e-07 2.95299e-07 1.79784e-08
-8.83515e-08 4.20727e-08 4.15636e-09
-1.22707e-07 6.67059e-08 2.32034e-08
3.68857e-06 6.1413e-05 8.78973e-05
-1.18862e-05 5.65829e-05 7.60854e-05
6.77232e-07 4.14107e-07 2.52077e-07
8.41372e-07 3.43716e-07 2.65009e-07
1.63194e-07 1.61566e-07 7.68119e-08
2.73131e-07 3.6009e-07 1.51029e-07
9.44946e-08 8.99715e-08 -1.20945e-07
1.08134e-07 7.40574e-08 -1.06877e-07
1.09862e-09 9.90328e-09 1.59767e-09
6.42231e-10 1.01519e-08 2.14122e-09
8.13381e-08 6.03725e-08 -9.03389e-08
2.28966e-09 5.6502e-09 -1.22315e-08
-9.75193e-10 8.19251e-09 -1.05063e-08
4.99876e-05 1.74368e-05 -1.58952e-05
8.20703e-07 6.63961e-07 2.76972e-07
8.55557e-07 6.23552e-07 1.23078e-07
4.16006e-05 1.15908e-05 -1.00492e-05
4.64256e-05 1.69233e-05 -1.78387e-05
4.15103e-09 1.40552e-08 -3.02919e-08
3.99144e-10 7.6809e-09 -1.57449e-08
6.1487e-08 2.36213e-07 1.79925e-07
1.75435e-07 2.22048e-07 1.83721e-07
1.58469e-06 1.17467e-06 9.4467e-07
1.94207e-06 1.1038e-06 7.39825e-07
2.18479e-09 6.73967e-09 4.72898e-09
1.03313e-09 7.28193e-09 5.83505e-09
3.28442e-07 2.32176e-07 -5.00448e-08
1.14682e-09 3.5228e-09 4.35741e-09
-1.96733e-08 1.3877e-08 -7.49765e-09
-1.47312e-08 7.07479e-09 2.07901e-08
3.13517e-07 2.37198e-07 -1.82455e-09
4.0495e-07 3.11123e-07 9.31747e-09
5.77792e-09 2.25951e-09 2.25398e-08
-3.89521e-09 1.03353e-08 2.98924e-08
-1.30344e-09 -1.12301e-09 -8.13587e-09
-2.48971e-06 3.1642e-07 6.43767e-07
4.37629e-08 -1.18315e-08 -8.19161e-09
-2.5603e-06 4.04405e-07 2.82155e-07
8.73666e-07 1.61368e-06 2.89047e-07
7.63671e-07 1.04198e-06 1.87482e-07
1.0107e-07 2.91571e-07 1.51949e-07
1.72816e-06 5.54891e-07 -2.80313e-07
4.2512e-07 2.00548e-07 1.27386e-07
4.37584e-07 2.84956e-07 1.26098e-07
1.40624e-07 3.16788e-07 1.47472e-07
-3.37607e-08 1.64609e-07 1.57705e-07
-1.53658e-08 1.74465e-07 1.53362e-07
3.6496e-08 1.11908e-08 -4.34313e-08
6.47522e-08 6.51807e-08 -5.08921e-08
2.11678e-07 1.22274e-07 -1.22278e-07
2.15249e-06 1.08332e-05 1.8303e-06
5.81613e-09 7.51294e-09 2.86522e-08
1.89372e-09 6.98005e-09 2.11087e-08
1.12659e-06 7.82866e-07 -1.8056e-07
7.53517e-07 1.19772e-06 1.76897e-08
1.9794e-06 1.29745e-06 -7.20774e-07
1.34475e-06 9.93211e-07 -5.64957e-07
1.11995e-06 1.09562e-06 4.11533e-07
3.44016e-07 2.88335e-07 -1.1722e-08
3.21252e-07 2.59011e-07 6.18779e-08
2.72725e-07 2.16225e-07 -1.96496e-07
-1.0745e-08 1.91018e-08 7.24826e-09
-7.65825e-09 2.3604e-08 -1.28748e-09
-8.3972e-09 2.36081e-08 -3.1698e-09
6.60639e-08 2.87715e-08 -7.34855e-08
1.87604e-08 5.11789e-08 -8.03023e-08
7.0681e-08 1.02196e-07 -1.64681e-07
-6.45476e-09 5.53994e-08 -6.29824e-08
1.34539e-07 2.01262e-07 1.15893e-08
2.5263e-06 6.08408e-06 -4.46653e-07
1.8861e-08 1.72527e-08 5.55498e-08
1.26802e-08 1.67496e-08 5.65491e-08
7.29182e-07 6.40838e-08 2.40479e-07
3.96364e-06 1.3478e-06 -9.75238e-08
1.41426e-07 2.4021e-07 -9.91869e-08
1.86833e-07 1.4986e-07 -9.54399e-08
2.49925e-07 4.93388e-07 2.73612e-08
6.67333e-08 9.25072e-07 7.1073e-08
2.04268e-08 6.00847e-08 6.78865e-08
1.62539e-08 6.25622e-08 6.35299e-08
1.85657e-08 2.4793e-08 -4.2633e-08
1.58965e-08 7.72882e-09 -2.05748e-08
1.15311e-08 4.869e-09 2.06067e-08
1.23587e-08 1.13956e-08 3.13776e-08
1.21644e-08 1.89738e-08 -3.47982e-08
1.01718e-05 4.71126e-06 1.2274e-06
2.54121e-05 2.44995e-05 -2.05119e-05
-3.31398e-09 1.81356e-07 2.26724e-07
-9.15433e-08 1.49447e-07 1.7987e-07
8.70233e-07 1.65811e-06 -2.87143e-07
8.08556e-07 1.91497e-06 -2.46667e-07
0.000282697 3.62935e-05 0.000114509
0.000257326 4.15604e-05 0.000127087
2.41307e-05 2.40656e-05 -2.06754e-05
9.81247e-06 8.11277e-06 4.2182e-06
-8.97759e-07 7.82115e-07 -1.89789e-07
-9.18357e-07 6.07015e-07 -1.67747e-07
6.2897e-06 4.66183e-06 1.8224e-06
3.10929e-05 2.82233e-05 2.77664e-05
2.68693e-05 2.08835e-05 2.01015e-05
7.31851e-10 -2.79827e-09 9.41978e-09
-1.3353e-08 1.15791e-08 -1.40834e-08
-1.13147e-07 5.84337e-08 5.68855e-08
2.97013e-05 1.90521e-05 1.56219e-05
-2.34645e-07 6.92549e-08 -5.93021e-08
-1.85684e-07 8.71919e-08 2.43117e-08
-4.22837e-07 2.73331e-07 -2.02347e-07
-2.53602e-07 1.54851e-07 -1.21775e-07
-2.30168e-07 8.78295e-08 -1.32501e-08
7.10227e-07 5.61358e-06 -2.64412e-07
6.84745e-09 4.96772e-09 -7.44754e-09
6.91125e-09 6.31796e-09 -1.09488e-08
-1.08146e-08 3.30662e-08 2.35414e-09
6.78515e-09 2.69032e-08 1.73748e-08
-7.20633e-09 1.55129e-08 8.74849e-09
-1.75433e-08 3.00975e-08 1.02612e-08
-2.13768e-08 2.66468e-08 5.44108e-09
-2.33281e-08 4.88706e-08 -1.03624e-08
3.44683e-08 1.07842e-08 -4.37413e-08
2.65626e-07 3.07311e-07 3.63596e-08
2.71767e-07 1.58934e-07 -9.93665e-08
2.07472e-07 1.92734e-07 1.56339e-08
-1.86743e-08 7.90396e-08 -1.05411e-08
9.72983e-07 5.24459e-07 -6.39848e-08
-3.99774e-06 3.4236e-06 2.13901e-06
-2.35636e-06 3.58134e-06 2.21474e-06
-1.16262e-06 1.05467e-07 3.38874e-07
-9.8951e-07 -4.33741e-08 6.10962e-07
1.60657e-06 8.26877e-07 -1.12442e-07
1.45725e-06 2.82729e-07 4.85495e-07
-9.79735e-09 6.90435e-09 4.05484e-08
-5.92086e-07 -3.28491e-08 -5.84778e-07
-1.06083e-06 7.41002e-08 -5.28963e-07
-2.0774e-09 6.71441e-10 4.00593e-09
-9.28584e-09 6.88453e-09 1.20269e-08
-7.18685e-09 -5.09486e-10 -1.75157e-09
1.99651e-07 5.24173e-07 1.24794e-07
1.4135e-07 5.09015e-07 1.05898e-07
-1.73736e-08 1.55874e-08 1.77356e-08
3.30927e-07 2.35301e-07 -2.60707e-07
-6.60004e-08 2.44367e-07 1.12444e-07
-1.76436e-06 2.37665e-06 3.88743e-07
-1.68509e-06 2.29058e-06 3.18178e-07
-1.4351e-07 2.21121e-07 1.11896e-07
-1.11911e-07 1.1075e-06 -7.27916e-08
-5.30637e-08 1.15324e-06 -1.05535e-07
2.98999e-07 5.73099e-07 -4.16699e-08
-1.7282e-08 1.90302e-08 2.56899e-08
1.55744e-06 3.02948e-06 -1.15165e-06
1.92356e-06 1.94314e-06 -3.91045e-07
-2.73621e-07 2.14561e-06 -1.05216e-06
-2.30314e-08 2.6265e-09 -1.07635e-08
4.24631e-05 3.69571e-05 5.26133e-05
3.03035e-05 3.54297e-05 4.72449e-05
3.82109e-09 2.09594e-10 -1.35864e-08
1.004e-08 7.40293e-08 3.65446e-08
6.01471e-05 3.51307e-05 -4.33616e-05
2.14914e-08 1.15747e-07 6.03842e-08
2.06773e-08 2.2806e-08 4.62326e-08
3.43258e-08 1.96083e-08 4.67906e-08
3.75912e-07 3.91568e-07 -3.28891e-07
2.36042e-08 2.05432e-08 3.8217e-08
2.27389e-06 7.40473e-06 -1.51124e-06
4.21646e-06 2.42857e-06 -2.91657e-08
1.25212e-08 5.31597e-08 7.0199e-08
-1.0642e-08 6.14936e-08 1.74291e-08
-1.99519e-08 1.21106e-08 2.38515e-08
-1.07612e-08 1.69457e-09 7.97064e-09
8.27491e-06 1.81125e-06 -9.82483e-07
1.05223e-05 2.66869e-06 -4.47718e-06
-2.41536e-06 1.80085e-06 1.32716e-07
-1.6946e-07 4.42324e-07 5.69062e-08
2.75273e-06 1.07822e-06 -2.58633e-07
-5.72716e-08 7.98091e-08 6.50379e-09
-2.53499e-08 9.15908e-08 -4.62577e-09
-1.82877e-06 1.05254e-07 7.38959e-07
-2.18753e-06 6.87223e-07 -9.18101e-07
-1.1294e-06 2.81051e-07 -9.01765e-08
-1.32521e-06 1.67164e-07 -4.30751e-07
-5.8361e-08 9.19965e-08 -6.3453e-08
-4.64302e-07 4.29933e-07 1.28894e-08
5.07921e-07 1.75445e-07 -2.55101e-07
5.16093e-07 1.94545e-07 -2.12408e-07
-4.87027e-07 4.43661e-07 1.93979e-08
7.044e-07 5.0295e-06 8.53852e-08
1.93853e-06 4.16734e-06 4.02337e-08
1.27781e-06 3.38251e-06 1.77874e-07
9.23882e-09 1.19236e-08 4.11725e-08
9.25841e-06 1.98668e-06 5.16125e-07
1.05233e-05 2.28759e-06 -2.05384e-06
-1.37619e-06 6.31764e-06 -1.08968e-06
8.43458e-09 -3.02258e-10 1.2529e-08
2.06701e-06 3.89548e-06 8.40331e-08
1.80199e-06 1.17071e-05 6.70027e-06
5.31889e-06 5.71208e-06 2.35853e-06
1.29925e-05 1.14958e-05 5.40584e-06
1.00544e-07 3.74424e-07 6.40841e-08
6.25487e-08 5.05919e-07 4.49052e-08
-2.54449e-07 1.41371e-06 1.58063e-07
-1.2701e-08 7.48872e-07 8.43393e-08
6.96086e-07 3.0305e-07 1.55746e-07
3.15124e-07 5.00947e-07 9.46277e-08
1.99581e-06 6.84445e-07 -1.00972e-08
2.85972e-06 1.26911e-06 5.82987e-07
-2.66569e-08 1.15747e-09 2.2081e-08
-2.29686e-08 -1.42324e-09 1.19515e-08
6.23215e-08 1.95349e-08 -7.66653e-08
4.76041e-08 1.08208e-08 -4.83695e-08
-1.48973e-08 6.21755e-08 9.44968e-08
1.16308e-08 5.01897e-08 9.79759e-08
-1.1842e-08 5.28317e-08 8.83251e-08
2.63736e-07 1.03231e-07 1.91545e-07
3.98058e-07 2.46102e-07 -7.50367e-08
5.67807e-07 2.69279e-07 1.35131e-07
2.36359e-08 6.8246e-08 -7.5583e-08
1.34477e-08 6.71532e-08 -7.01723e-08
-5.20386e-08 5.75655e-07 -3.31556e-07
2.43564e-08 3.30689e-07 -1.95212e-07
-1.27002e-07 2.81577e-06 -5.21746e-07
-7.462e-07 1.88812e-06 -3.51028e-07
-9.52481e-09 5.49345e-08 -5.08507e-08
2.03661e-07 3.19152e-09 -4.2099e-08
-1.74931e-08 6.83813e-09 1.10733e-08
1.13745e-08 3.09058e-08 -4.68927e-08
-1.79003e-06 3.79263e-06 -1.64403e-07
-7.08914e-08 3.64417e-07 -2.70802e-07
-1.29521e-07 3.21283e-07 -2.26873e-07
2.89604e-05 3.6773e-05 3.48822e-05
1.79506e-06 9.43478e-07 1.41749e-06
0.000123553 1.11033e-05 -4.06909e-06
0.000145288 1.2645e-05 -2.89594e-05
9.88239e-05 1.32974e-05 -4.62084e-05
0.000130792 1.25795e-05 -2.18148e-05
1.85969e-06 9.09186e-07 1.54521e-06
2.76521e-05 2.82284e-05 2.57429e-05
2.52953e-05 2.84049e-05 2.39552e-05
3.39897e-08 2.65597e-08 -6.75161e-08
-1.92817e-08 4.80257e-09 -2.75671e-08
-1.0044e-08 3.81369e-09 -4.18769e-08
3.90365e-08 1.93105e-08 -5.8937e-08
1.86252e-08 1.09221e-08 -3.31222e-08
1.49394e-07 2.45997e-07 8.09386e-08
1.09929e-07 3.73996e-07 2.21244e-07
-7.1046e-07 1.06305e-07 2.32218e-07
-2.54591e-05 8.70622e-06 -7.94172e-06
-2.25635e-05 1.34849e-05 -1.49614e-05
-8.87997e-07 7.90716e-07 -2.19717e-07
1.99715e-07 2.01676e-07 -1.60569e-07
3.35565e-07 3.71777e-07 9.93284e-08
1.79028e-07 5.05477e-07 -2.66427e-07
1.71014e-07 2.17795e-07 -1.44107e-07
9.73518e-08 5.96251e-09 6.16787e-08
8.0088e-08 4.5423e-08 1.06769e-07
5.13429e-08 2.81234e-08 7.07343e-08
1.28412e-06 1.6693e-06 -1.19076e-07
1.41331e-06 1.91272e-06 -1.21305e-07
-5.19591e-05 2.2232e-05 -3.27393e-05
-1.0947e-07 2.38889e-07 6.1666e-09
2.47823e-08 9.54209e-09 2.49858e-08
-2.52443e-08 5.72852e-08 1.03729e-07
6.82901e-07 2.02078e-06 -2.17677e-07
7.03343e-07 1.34723e-06 -1.72381e-07
-6.32964e-08 1.093e-07 -1.57404e-09
1.12175e-07 1.73096e-07 -2.06038e-09
-1.23735e-07 1.89729e-07 -1.33671e-08
-2.15386e-05 1.22456e-06 -1.29209e-06
4.82168e-09 1.18721e-07 -5.6937e-08
-2.22162e-09 1.01181e-07 -4.98623e-08
-7.83863e-06 -1.15608e-06 -3.14933e-06
8.18657e-07 7.66997e-07 -2.74119e-07
-1.5682e-05 4.82796e-06 4.84715e-06
-9.25507e-09 8.50057e-08 -1.31237e-09
1.79781e-06 6.40292e-07 1.84472e-07
1.92946e-06 5.28915e-07 4.71801e-07
2.12189e-09 6.04604e-08 -2.9858e-08
-7.33352e-09 6.66999e-08 2.08463e-08
1.07569e-07 1.87996e-07 -1.07358e-07
1.00625e-08 -3.4294e-09 -1.57868e-08
1.051e-08 3.90107e-09 -2.97963e-08
4.36106e-07 4.55237e-07 -1.22467e-07
5.32698e-07 3.86527e-07 5.51426e-08
2.85865e-06 2.37149e-06 9.99245e-07
3.7146e-05 4.19979e-05 5.40255e-05
3.29528e-05 4.2172e-05 4.98718e-05
1.38868e-08 7.39636e-10 -2.85278e-09
-1.02224e-08 5.67749e-10 -1.68946e-08
2.21327e-05 3.36552e-05 3.79121e-05
3.43796e-07 1.01395e-07 1.42707e-07
1.79932e-07 1.47135e-07 1.07741e-08
-1.6889e-08 4.72036e-08 1.28677e-09
-8.67759e-08 1.72318e-07 1.54771e-07
-8.21681e-08 1.88914e-07 1.55298e-07
-5.92858e-07 3.25046e-06 2.67243e-07
-8.57153e-08 4.27241e-08 3.66264e-08
-1.43948e-08 1.04123e-07 8.46725e-08
-6.66877e-05 3.78926e-05 -5.87706e-05
-5.14036e-05 3.10922e-05 -4.46177e-05
-7.4153e-07 3.27041e-06 2.81262e-07
1.0587e-06 1.27348e-06 -2.68255e-07
-2.68361e-07 2.71847e-06 3.56577e-07
-6.78542e-10 6.70473e-09 -2.02095e-08
5.11116e-08 7.27346e-07 -2.49984e-07
-8.77585e-06 3.67289e-05 -3.57639e-05
2.64516e-07 3.44503e-07 -4.1596e-08
9.68591e-07 6.58396e-07 6.77171e-07
5.63789e-08 9.98032e-08 -4.94311e-08
-2.56588e-08 3.68063e-08 2.19587e-08
7.41928e-09 2.32563e-09 -6.22677e-09
-2.99461e-09 3.37012e-09 -2.03952e-08
-1.41178e-05 2.26516e-05 -2.2162e-05
-2.43453e-08 4.88343e-08 7.05014e-08
1.38055e-06 5.1121e-07 -2.17695e-07
-3.58681e-09 -1.78003e-09 1.11829e-09
5.85809e-08 1.13791e-07 1.24443e-07
1.63308e-08 3.75298e-09 2.09948e-08
2.26621e-05 2.69601e-05 -1.89406e-05
2.60487e-07 8.76837e-08 -1.03881e-07
1.09713e-05 2.96088e-05 -2.43373e-05
0.000628067 2.30592e-05 -0.000160587
0.000650977 2.82614e-05 -0.000144924
1.58832e-08 8.32883e-08 8.12847e-08
-3.84948e-05 7.54607e-05 -0.000192633
1.4523e-08 9.45052e-08 7.87028e-08
-6.13354e-08 7.64418e-08 1.31996e-08
-7.05442e-08 5.60429e-08 -7.42938e-09
3.92601e-08 1.31155e-07 1.11899e-07
1.07077e-06 1.12779e-06 -3.53832e-07
1.24316e-08 4.16866e-09 -1.43324e-08
3.44454e-07 2.69504e-07 -9.39255e-08
3.61312e-05 4.68852e-05 -5.05306e-05
3.44279e-07 1.92315e-07 6.5722e-08
3.55931e-07 1.58458e-07 1.3316e-07
3.57823e-07 1.83735e-07 1.1126e-07
3.02068e-05 4.74483e-05 6.80738e-05
-1.01201e-07 5.4182e-08 -2.11245e-08
-8.90872e-08 4.7054e-08 -5.0225e-08
-1.7197e-07 1.13866e-07 -1.83591e-08
-3.06609e-07 2.70671e-07 -7.65529e-08
3.47652e-05 4.98916e-05 6.93461e-05
7.90509e-06 2.32277e-06 -3.17809e-09
1.59528e-06 5.89204e-06 -3.276e-06
1.46837e-06 4.98418e-06 -2.61647e-06
0.000385557 3.00639e-05 -0.000135936
0.000372617 3.13359e-05 -0.000122006