# vtk DataFile Version 2.0
S, Created by Mohamad Ibrahim Cheikh
ASCII
DATASET UNSTRUCTURED_GRID
POINTS 10490 double
-223.577 20.3385 -34.7914
-223.732 23.2838 -32.7644
-130.493 -29.3182 69.2795
-194.384 -37.8826 -41.0224
-207.476 29.5036 40.042
-235.88 27.3952 13.4743
-191.276 -39.7123 -41.0811
14.4321 -3.16339 87.798
-191.084 39.2109 -41.6678
-193.426 36.923 -42.4282
-251.147 3.21135 -3.38023
-251.007 5.46161 -0.714621
-204.328 29.2941 -42.1236
18.6366 -1.56856 87.744
-201.231 30.3621 -43.1793
-151.376 68.7319 -14.6447
-148.598 69.9401 -12.2044
241.381 21.7603 -11.7088
240.378 24.3443 -8.78245
39.9945 72.8363 -47.3607
43.8164 72.1382 -48.0107
45.4761 -3.22813 -86.4892
49.3328 -1.53167 -86.2768
-145.563 -45.4977 -55.4961
-142.059 -46.9226 -55.4213
-191.797 -27.3667 49.9131
-189.472 -30.0446 49.4582
-64.3391 -67.8383 51.3338
-66.4783 -66.018 53.3344
-121.232 -41.6825 -64.8629
-205.5 44.6032 24.1724
-208.438 41.867 25.9228
-64.8772 -22.6318 81.9542
-61.2375 -23.9502 81.9223
44.3409 4.14393 86.5223
-201.399 -44.9179 27.576
-53.776 82.2703 -24.9306
-50.796 81.8746 -26.9192
-109.541 -78.4117 -11.2479
-105.515 -79.2424 -10.078
-195.506 42.6347 35.3084
-200.947 -43.0035 30.8382
-54.4323 -15.3632 84.5294
3.53759 8.2274 87.6058
226.255 36.0723 -13.2452
223.494 37.2784 -15.4584
-147.014 22.41 -67.7915
-143.849 23.6581 -68.1974
-167.021 -43.025 -49.7749
-163.503 -43.48 -50.7991
-215.267 -7.16025 -44.9367
-215.167 -3.16451 -45.4513
-105.647 -17.6498 77.8845
-104.111 -21.1852 77.2538
-247.959 -12.5241 7.72451
-247.222 -12.2254 10.5722
-226.225 -18.8475 33.5123
-129.027 -40.8342 -63.548
238.447 4.07541 -27.6832
236.191 2.11795 -30.1591
30.7167 -3.77399 -87.2596
26.7414 -2.0532 -87.477
-224.961 -22.5411 32.2495
-47.6601 -75.8725 41.3432
-235.553 -26.7707 15.3058
-110.441 51.1165 -60.3141
-237.919 -25.2896 13.1986
-16.8345 -1.53634 -87.7892
-20.0219 -4.06293 -87.6266
25.3122 7.43193 -87.2372
27.4144 3.63737 -87.4
25.4816 1.66063 -87.5314
45.9877 -6.35215 -86.2828
-242.159 -16.9754 16.6253
249.587 -5.36915 -9.40944
249.111 -2.30257 -11.8806
-169.145 48.1616 43.8377
30.4444 -13.5018 -86.3031
-165.52 47.9302 45.7435
-244.371 -14.4434 14.9726
243.986 6.92785 20.1942
244.544 3.56427 20.2422
-218.53 -34.2529 26.9076
-142.146 -69.411 21.2687
-139.63 -70.7398 18.7861
-221.096 -32.0566 27.0476
-157.971 -59.8003 33.3571
-205.041 32.4589 39.284
-154.32 -61.364 32.6012
21.3244 7.31511 87.3774
-119.096 18.4824 75.272
-116.424 20.5618 75.2444
25.5783 -59.0345 64.6438
29.1135 -57.6644 65.689
-134.61 55.0065 -49.9987
-136.92 52.5263 -51.8632
-177.097 57.9143 23.4544
-176.711 59.3847 19.858
-70.3048 65.0131 -53.9644
-62.7824 16.9195 -83.5174
-66.3954 16.9222 -83.174
-66.7639 66.5306 -52.6494
124.473 57.7421 50.1297
121.04 58.3481 50.4559
-132.441 -69.8472 26.7931
-132.815 -68.0013 30.9869
-188.877 35.1132 46.2973
-185.129 37.2819 46.4545
-232.727 13.173 -30.6498
-60.4208 74.905 41.0644
-61.7264 76.4265 37.9014
-231.928 16.7972 -29.6018
-175.272 -46.957 -42.1659
-178.795 -11.2346 60.8604
-181.801 -8.3773 60.2271
-195.829 53.7486 12.6499
-198.384 52.0616 14.6697
-195.137 -6.40533 -55.1456
-196.112 -2.36616 -55.0432
-155.76 25.0218 64.4019
-159.478 22.4744 64.2268
-196.211 -54.5515 -7.39848
-193.182 -56.048 -5.79668
-91.4733 75.1313 -32.7851
-87.506 75.5023 -33.2553
-39.2309 -78.9681 -36.3265
-42.7321 -77.6553 -38.6017
-35.7339 20.4239 -84.679
-119.251 -59.0796 -50.1253
-116.056 -58.3922 -51.8201
-103.566 -58.9132 54.4064
-107.461 -57.2229 55.2786
-176.109 46.898 -41.8028
26.9047 13.919 -86.3808
23.8165 15.7435 -86.1783
-175.611 44.5874 -44.5004
-89.4475 -39.5975 72.0867
-93.3178 -38.4637 72.0999
-1.70642 -75.0135 -46.0067
2.6326 -75.2495 -45.6143
-158.023 -33.1995 -59.871
-154.737 -36.6341 -58.9113
26.271 72.6656 48.7771
28.6911 70.6386 51.5112
-166.614 38.7972 53.2925
-169.02 36.421 54.0364
126.65 60.2619 46.3539
125.014 62.2376 44.2387
55.9281 20.2519 83.3721
-158.161 12.6332 67.2444
-155.548 9.85358 68.4447
-44.4799 72.9625 -46.6717
71.0129 53.0445 -65.6726
-41.822 74.6424 -44.2534
222.064 -27.8284 -30.5323
225.276 -26.0125 -29.2251
-17.9235 78.9161 -38.4306
-20.6612 77.6464 -40.7772
247.477 -7.06406 13.9944
245.671 -9.0724 16.5072
-182.897 19.8483 57.0491
-181.355 22.6906 56.5903
-56.0167 68.279 51.9404
-53.7291 70.1318 49.7202
-221.675 26.3862 -32.1176
245.289 -12.7014 14.7128
-123.339 -44.6623 -62.3442
-128.466 -46.902 -59.3604
-126.785 -44.2473 -61.7913
-219.064 -11.0549 41.7911
-206.376 49.8753 -6.48263
-208.061 48.5126 -9.5182
-173.563 -35.1408 53.1131
-196.134 -34.8662 -42.6451
-56.8572 10.5933 85.0647
-99.9468 80.6065 4.85682
-149.824 -21.4712 67.3406
-153.214 -21.7182 66.3198
-106.015 79.7625 2.43715
-103.695 79.9802 5.54216
-208.26 -1.8265 -49.3008
-211.703 -0.428695 -47.505
7.52175 76.2419 -43.8661
9.15108 74.4959 -46.7344
-21.0186 85.7388 -18.4057
-23.8293 84.873 -21.7037
12.9212 74.0771 -47.2878
-209.322 34.905 -34.0774
-209.439 37.4761 -31.1314
-243.67 12.2883 -17.9904
-206.005 40.0839 -30.685
-237.953 16.727 23.0657
-240.125 13.5334 22.3944
-198.675 34.6971 41.3225
-44.0961 -51.8638 -69.398
-47.9408 -52.1831 -68.8443
-65.4224 78.116 -33.4347
-62.3489 79.1142 -31.765
-198.913 37.6915 38.4608
-195.386 39.9811 38.3622
193.194 51.8474 -22.051
191.209 51.6117 -24.5778
-17.4672 72.0652 -50.1323
-15.9687 70.381 -52.529
-160.723 -8.68228 67.1268
-158.271 -5.14834 68.1957
-159.182 -12.1866 67.0317
-155.59 -13.9539 67.716
-181.218 -39.3694 -46.62
-187.07 -34.8952 -47.3484
234.201 -8.19826 31.0077
231.367 -8.83974 33.3482
-185.725 -37.8062 -45.7341
-220.423 -36.332 -21.8073
-223.2 -33.1948 -23.2993
-74.7238 69.4255 47.3338
-199.26 43.3623 -31.665
-202.424 40.5082 -32.9609
-79.39 71.8336 42.5708
-75.5995 71.6012 43.7898
-199.863 -47.1007 -25.1999
-196.405 -49.1628 -24.5818
-156.239 -38.5667 57.1666
-155.218 -34.6079 59.9719
-162.93 56.2448 -36.4757
-159.787 58.0746 -35.2914
245.94 -16.0779 8.95226
246.756 -13.0535 10.9095
-202.195 25.1207 -45.909
246.469 -16.6406 5.45927
-222.674 -40.7298 -3.81011
-219.563 -42.6766 -4.53658
-225.916 36.4509 -12.9115
-224.092 36.209 -16.8757
-228.9 -34.8682 10.6496
-231.376 -33.5774 7.89092
-225.472 -37.7615 9.69488
119.601 74.8225 19.8569
-172.164 -51.102 -38.7773
115.407 75.6367 19.8108
47.9041 12.1471 -85.5307
51.4926 10.7578 -85.4614
-180.222 -22.1795 57.2321
-179.968 52.3148 -32.2776
-165.458 0.844974 66.2692
-168.581 2.82135 65.2428
-181.022 -17.4219 58.5539
36.4527 -59.7569 63.328
37.7867 -57.2102 65.5453
-159.985 -59.9395 -31.9001
-182.768 -21.7989 -56.3837
-184.315 -18.0321 -57.0932
-11.9568 14.937 -86.6221
-188.59 -54.9979 19.101
-192.466 -53.1212 19.6698
-145.953 9.32579 -71.0563
-143.747 12.1238 -71.1842
-174.392 52.4049 35.6972
-173.447 50.7059 38.5971
-187.193 39.7032 -43.3305
-231.502 33.4923 -7.79786
-229.096 35.9668 -4.9604
-234.907 30.8684 -5.93824
241.404 7.72066 23.4444
239.892 10.8365 24.102
240.61 13.4016 21.8298
-138.88 -61.8305 -39.4918
-138.123 -60.1634 -42.2923
-141.496 -58.2518 -43.5835
-200.351 -41.1653 -33.69
-218.718 20.113 -38.5061
-52.7165 8.96855 85.5764
-56.68 -81.1832 27.5674
-60.1943 -81.461 25.7779
-152.617 56.1688 41.6824
-153.43 58.0397 38.643
-189.415 -9.9012 -57.0387
-186.068 -8.88155 -58.5356
64.9094 -8.71511 84.5708
67.8932 -7.08599 84.4361
-196.835 -37.2204 40.1894
-200.415 -34.6108 40.3552
-180.668 -48.2459 -37.684
-174.532 -52.0917 -36.0701
-215.619 -38.509 23.8558
-218.655 -36.415 23.7599
-178.254 -50.982 -35.4212
-121.679 47.8855 -60.3182
-71.6028 59.3386 59.9603
26.8711 -68.3031 54.6835
24.8097 -66.5897 56.8723
-87.205 -8.61113 -82.0902
-84.0239 -6.30786 -82.7034
-34.6868 85.5944 -16.4406
-38.0925 85.0644 -18.1768
-75.3878 59.8657 58.8582
-117.742 48.8882 -60.4705
67.1021 -10.9761 -84.0967
63.3531 -11.5804 -84.3712
-122.399 44.6795 -62.5584
-76.4973 63.8352 -54.3381
-79.9789 64.0756 -53.4339
-210.937 -46.4386 -11.8322
-207.91 -47.2776 -14.7159
-70.3821 -66.9061 51.5858
-82.7303 61.5819 -55.8007
181.007 57.572 -20.4501
187.795 54.7417 -20.7271
-57.9813 -57.772 -63.2044
-60.2452 -59.9512 -60.8728
185.032 56.505 -18.9616
-52.2259 4.86264 85.9443
170.803 -60.94 -21.4145
166.657 -61.8364 -22.799
-242.16 -11.2311 20.9366
-241.443 -7.71472 23.3969
231.623 25.8608 -22.5154
229.371 25.1799 -25.8605
225.985 27.6872 -26.9258
-235.384 -18.9701 -24.5115
-234.85 -16.6287 -26.7373
-226.07 27.1592 -27.3721
-222.954 28.4598 -29.124
-220.77 31.374 -28.1509
-250.634 -7.29605 -0.178299
-176.059 45.3009 43.5531
58.7129 51.2239 -68.5425
59.7783 48.3939 -70.4595
128.12 68.3797 32.5354
131.611 68.3053 30.9472
-176.953 47.6059 40.5475
-181.053 46.7513 39.3067
18.7051 -86.418 15.2671
142.04 69.3646 -21.5051
141.107 68.3955 -25.0665
23.2386 -86.1703 15.8921
181.098 -44.0246 42.3148
25.6369 -86.6618 12.3797
-189.028 21.6374 -53.8626
-189.448 17.8915 -55.0436
-212.326 -45.0148 14.0792
-120.853 -47.0064 -61.2066
-24.3197 -37.276 79.2596
52.3367 18.509 -84.0599
55.8496 16.7229 -84.1574
-25.2888 -41.1248 77.2946
-119.136 -6.5487 -77.2232
-115.757 -7.76524 -77.7379
-200.053 16.4658 50.7253
-215.148 -43.2646 14.3197
-153.448 33.0078 61.4142
-156.877 31.3366 61.2288
-157.693 28.1844 62.4913
-79.9672 -83.431 0.603099
-63.668 72.5314 -44.5747
-62.8354 70.4995 -47.8585
-79.8046 -83.3553 -4.02088
-209.642 -18.6826 44.8796
-60.5068 71.1378 47.2778
-205.671 -19.6759 46.6687
-191.284 -46.3888 33.353
-190.154 -45.008 35.9356
-195.136 47.3198 29.0331
-192.217 -42.6384 37.4499
-97.7151 19.7329 78.6487
-94.1421 20.9612 78.8642
-195.846 -41.8732 35.9824
-247.679 -8.81295 12.483
188.065 -42.0219 40.5953
184.93 -44.2656 39.9693
-127.269 75.487 7.91611
-123.662 76.009 9.71508
48.8955 1.67086 86.3047
130.448 15.5885 -73.6046
-179.739 46.5113 -40.3167
198.596 13.1794 52.3603
200.49 9.43271 52.2854
113.369 74.8965 23.6846
109.631 75.3429 24.4122
149.572 63.7405 -30.6945
145.745 65.3528 -29.5363
-166.874 -45.6711 -47.422
129.848 19.3524 -72.837
-209.809 43.7054 -21.0821
-206.949 46.1285 -19.3063
126.474 20.2046 -73.3309
-61.8987 -0.381705 85.2923
-59.2023 2.55043 85.4891
-53.8599 -2.02464 85.9345
[...]
POINT_DATA 10490
VECTORS F double
2.02274e-08 3.96516e-08 7.28486e-09
1.35117e-07 9.97117e-08 -4.20768e-08
1.25998e-07 6.61984e-07 3.09197e-07
5.39115e-08 -1.96243e-09 -2.9459e-08
2.86852e-07 2.64554e-07 -1.29681e-08
1.78724e-07 1.92395e-07 -8.17597e-09
7.9549e-08 2.93571e-08 -7.37207e-08
-1.79661e-06 2.01619e-06 1.088e-07
1.00698e-06 7.75431e-07 1.64351e-07
1.11344e-06 6.61897e-07 -4.54311e-08
1.19443e-08 7.19426e-08 -3.98029e-08
1.10149e-08 5.89806e-08 -2.06985e-08
1.00685e-07 3.69712e-07 1.97328e-07
-2.24506e-06 3.59487e-06 1.22645e-07
1.4573e-07 1.11265e-07 -4.90501e-09
3.38389e-06 5.47373e-07 -1.71334e-06
4.44404e-06 6.95151e-07 -2.64092e-06
-1.31717e-08 2.39855e-08 1.1347e-08
-1.52007e-08 2.32531e-08 1.35361e-08
-3.51894e-05 5.48188e-06 4.7924e-06
-3.38496e-05 5.30882e-06 4.19451e-06
-3.50097e-06 1.97539e-06 -2.99102e-07
-3.187e-06 1.42974e-06 -2.4849e-07
2.97904e-08 2.1726e-07 -1.87681e-07
5.60966e-08 2.42321e-07 -2.22763e-07
1.62781e-08 1.57131e-07 9.38034e-08
1.46789e-09 1.33171e-07 8.15811e-08
-4.07331e-08 1.7092e-07 2.19621e-07
-1.68046e-07 1.33516e-07 1.3962e-07
2.52294e-07 2.12649e-07 -1.94383e-07
5.90931e-07 2.72765e-07 1.1172e-07
3.89068e-07 2.99101e-07 -1.00095e-07
9.13314e-08 2.87663e-06 8.03238e-07
-3.59121e-07 1.39545e-06 3.75095e-07
-1.91524e-06 2.86654e-06 -1.71228e-08
1.25979e-08 2.57525e-08 5.32035e-08
0.00012974 3.22146e-05 7.2043e-05
0.000141578 3.67877e-05 7.91808e-05
3.41506e-08 1.00969e-09 -4.77511e-08
2.93305e-08 -1.98314e-09 -2.19981e-08
6.60114e-07 3.63917e-07 8.04885e-09
2.37715e-08 2.65188e-08 5.59375e-08
3.79826e-07 2.65726e-06 5.12899e-07
-1.40985e-06 3.36572e-06 -3.09117e-07
-2.57789e-08 1.55655e-08 -1.15149e-08
-4.29976e-08 3.85724e-08 1.69155e-08
1.33483e-06 9.12536e-07 -5.27387e-08
1.07277e-06 2.00076e-06 4.17046e-07
-4.7192e-08 1.02438e-07 -6.9156e-08
-4.01818e-08 1.15946e-07 -8.34035e-08
5.51204e-08 1.47303e-07 -5.57899e-08
7.42006e-08 1.56579e-07 -5.38972e-08
9.47076e-07 2.35059e-06 6.89957e-07
9.57572e-07 2.25441e-06 7.7621e-07
-3.59017e-08 8.77455e-08 1.05635e-09
-2.56141e-08 6.77168e-08 4.89048e-09
5.29749e-08 8.8725e-08 9.36687e-08
1.73165e-07 4.08617e-08 -6.92994e-08
-2.00636e-08 1.38539e-08 -1.91153e-08
-1.92969e-08 9.25345e-09 -1.785e-08
-2.67249e-06 3.23668e-06 -2.55165e-07
-2.41302e-06 4.25243e-06 -1.90122e-07
1.23929e-08 7.9064e-08 6.58314e-08
-3.3428e-08 4.90496e-08 8.52958e-08
-1.0341e-08 1.25905e-08 2.51259e-09
1.77029e-05 6.60702e-06 1.63081e-06
-1.88943e-08 3.32286e-08 2.19312e-08
-6.00197e-07 5.27637e-06 -7.82457e-08
2.12324e-07 3.92889e-06 -1.88107e-07
-3.80326e-07 8.11922e-06 6.78183e-07
-3.86036e-06 6.05779e-06 1.03864e-07
-2.38609e-06 4.41492e-06 -1.28428e-09
-1.24677e-06 2.28819e-06 -2.49814e-07
4.04584e-09 4.192e-08 4.99724e-08
2.61907e-09 1.40842e-08 4.97924e-10
-3.57261e-09 5.82638e-09 -1.02821e-08
2.66259e-07 4.18715e-07 -3.3425e-07
1.07026e-06 1.62756e-06 -2.08403e-07
4.14168e-07 5.86814e-07 -4.31396e-07
-7.98528e-11 2.81751e-08 2.69754e-08
-9.69044e-09 1.1469e-08 1.03954e-08
-2.7003e-09 1.16987e-08 1.929e-09
1.66529e-08 1.4981e-08 3.56203e-08
2.29463e-08 5.95077e-09 3.81893e-08
1.18998e-08 3.40849e-09 2.36599e-08
1.37229e-08 1.80619e-08 3.51293e-08
3.34599e-08 3.04628e-08 7.40091e-08
2.31386e-07 3.0946e-07 -1.07846e-07
3.54027e-08 2.63665e-08 7.01409e-08
3.22697e-07 4.57689e-06 -3.92812e-07
2.15013e-06 2.87986e-06 -2.90633e-07
1.94362e-06 3.39244e-06 -5.5886e-07
-2.26393e-08 1.71669e-07 1.57868e-07
-6.03352e-08 2.53263e-07 2.25596e-07
5.7593e-06 3.94408e-06 2.44077e-06
7.89534e-06 3.01898e-06 5.05668e-07
4.13225e-07 3.63269e-07 -5.15021e-07
1.39903e-06 6.40904e-07 -3.92416e-07
4.07264e-05 2.5087e-05 2.37273e-05
2.67776e-06 7.9066e-07 -8.62653e-08
2.41149e-06 -4.20876e-07 -3.21306e-07
4.12191e-05 2.64937e-05 2.70795e-05
-1.00776e-06 4.11563e-07 -1.67701e-07
-1.07149e-06 4.1454e-07 -1.64679e-07
4.18188e-09 1.23628e-08 3.47532e-08
5.32005e-10 1.71859e-08 3.79894e-08
1.04292e-06 5.67304e-07 9.06364e-08
1.01053e-06 7.3955e-07 -1.00497e-07
6.28607e-08 8.59525e-08 -2.14773e-08
6.46352e-05 3.31815e-05 -4.88822e-05
6.06221e-05 3.16393e-05 -5.17114e-05
4.03055e-08 8.91035e-08 1.19202e-08
4.19604e-08 -1.57741e-08 -3.78478e-09
4.17197e-07 3.64917e-07 2.17411e-07
2.09419e-07 1.44106e-07 9.74337e-08
7.18669e-07 3.89281e-07 -2.91969e-07
8.5755e-07 4.09353e-07 -3.29729e-08
-6.42067e-10 1.21647e-07 -1.38455e-08
1.30915e-07 1.67602e-07 -6.43049e-08
3.68342e-07 2.58385e-06 -8.94829e-07
1.34341e-06 9.47327e-07 7.6898e-08
5.97625e-09 -1.17062e-09 -1.07592e-08
-1.01923e-09 -3.60596e-10 7.66907e-09
3.18338e-05 1.01792e-05 1.24526e-05
3.31912e-05 1.01912e-05 1.2445e-05
-4.02381e-08 4.95142e-08 -1.02314e-07
-2.78317e-08 6.32734e-08 -1.23514e-07
3.03297e-06 1.34869e-05 3.09624e-06
1.22372e-07 1.53613e-07 -2.16694e-07
1.18737e-07 1.80205e-07 -2.35614e-07
3.6458e-08 1.36738e-07 1.56558e-07
7.78737e-08 2.18676e-07 2.44898e-07
2.7907e-06 8.32169e-07 -5.0578e-07
1.92614e-07 7.62068e-06 1.2353e-06
-2.39069e-06 3.78105e-06 6.09848e-07
6.62485e-07 8.10658e-09 -3.11942e-07
2.08928e-07 5.36632e-07 3.2651e-07
2.69286e-07 8.51649e-07 4.97002e-07
-5.87588e-08 8.2148e-08 -1.33673e-07
-5.77776e-08 5.8089e-08 -9.62364e-08
1.21576e-07 2.38422e-07 -1.71493e-07
2.5598e-08 1.51807e-07 -1.02631e-07
-5.23178e-05 2.23019e-05 -2.97742e-05
-4.81025e-05 2.37348e-05 -2.92679e-05
2.81193e-06 1.26754e-06 1.53527e-07
2.41331e-06 1.48043e-06 -7.36587e-08
-5.02954e-07 1.93849e-07 -8.37631e-08
-1.50218e-06 4.07268e-08 4.62431e-07
-5.51137e-07 2.81601e-07 -2.31378e-08
9.23213e-07 1.06877e-06 6.50511e-08
1.96445e-07 2.79108e-07 1.44712e-08
4.57084e-05 5.31312e-05 7.77272e-05
-6.36294e-06 2.98929e-06 1.57211e-06
4.88548e-05 5.20584e-05 8.21542e-05
-2.55369e-09 8.4807e-09 -1.00011e-08
-1.63594e-09 6.78498e-09 -7.58237e-09
1.67916e-05 7.6451e-05 0.00015603
2.44331e-05 7.32606e-05 0.000137984
-4.47638e-10 4.29341e-10 1.1748e-09
-9.4786e-10 1.47597e-09 2.53025e-09
3.67366e-07 5.50717e-07 -4.74172e-08
2.92145e-07 6.15875e-07 -1.32326e-07
4.10293e-05 3.23269e-05 -3.70782e-05
3.55188e-05 3.50298e-05 -4.47112e-05
2.10798e-07 8.77085e-08 -1.06047e-07
-3.3931e-09 -7.83293e-10 6.2441e-09
2.41511e-07 1.95106e-07 -1.98265e-07
1.00501e-08 1.33808e-07 -1.08384e-07
2.23552e-07 4.24745e-08 -8.65694e-08
2.9248e-09 1.24815e-07 3.48844e-08
6.0032e-07 3.19158e-07 1.15785e-07
6.40731e-07 3.44433e-07 4.08398e-08
8.44432e-08 1.29546e-07 1.1949e-07
8.58091e-08 9.83982e-09 -5.63566e-08
1.47152e-06 4.05214e-06 -3.84207e-07
4.79493e-05 7.21172e-06 1.11753e-06
-4.03025e-08 2.58405e-07 7.14102e-08
-7.2984e-08 3.58906e-07 9.68861e-08
3.96153e-05 6.82829e-06 -1.24953e-05
4.35299e-05 7.86803e-06 -1.38305e-05
5.29565e-08 9.6849e-08 -3.09683e-08
7.10983e-08 1.90326e-07 -4.04985e-08
-7.61524e-05 3.19987e-05 5.40165e-05
-5.76461e-05 3.64465e-05 5.67143e-05
0.000407723 3.99299e-05 0.000128995
0.00027665 6.24472e-05 0.000207011
-5.89484e-05 2.29181e-05 3.39293e-05
3.13976e-07 2.37609e-07 7.28533e-09
9.22719e-07 5.04893e-07 -1.52183e-07
1.03891e-07 1.75193e-07 -5.25522e-08
8.30937e-07 6.39782e-07 1.52795e-07
6.83529e-08 1.96996e-07 -5.65622e-08
7.92142e-08 1.66365e-07 3.41349e-09
4.23061e-07 -1.92561e-07 4.10701e-07
4.34088e-07 3.15478e-07 -2.69537e-07
3.99197e-07 4.01857e-07 -3.38635e-07
7.90548e-05 3.18577e-05 5.54925e-05
8.10716e-05 3.18031e-05 5.97266e-05
7.12007e-07 -4.35415e-08 4.93489e-07
5.24649e-07 3.02061e-07 1.2324e-08
-8.56803e-08 4.0695e-08 3.77916e-09
-1.20186e-07 6.55685e-08 2.32139e-08
2.96285e-06 5.97267e-05 8.57307e-05
-1.16137e-05 5.52731e-05 7.44899e-05
6.98071e-07 4.18685e-07 2.58778e-07
8.61918e-07 3.48238e-07 2.71189e-07
1.68091e-07 1.59638e-07 7.78884e-08
2.81287e-07 3.66196e-07 1.54583e-07
9.92956e-08 9.58346e-08 -1.28182e-07
1.13425e-07 7.74926e-08 -1.11971e-07
1.45382e-09 1.05144e-08 1.43205e-09
1.01035e-09 1.05642e-08 1.94042e-09
8.56004e-08 6.34661e-08 -9.50183e-08
2.65487e-09 5.22749e-09 -1.19828e-08
-1.22984e-09 7.7374e-09 -9.56456e-09
4.80926e-05 1.73879e-05 -1.62078e-05
8.32237e-07 6.77743e-07 2.86957e-07
8.71742e-07 6.36054e-07 1.26268e-07
3.99879e-05 1.15777e-05 -1.0406e-05
4.47684e-05 1.69015e-05 -1.81732e-05
4.19931e-09 1.46636e-08 -3.14776e-08
2.83243e-10 8.02381e-09 -1.6321e-08
6.17987e-08 2.46813e-07 1.87182e-07
1.82321e-07 2.30908e-07 1.91017e-07
1.57498e-06 1.17736e-06 9.54166e-07
1.93763e-06 1.10042e-06 7.3677e-07
2.30345e-09 7.31221e-09 5.37236e-09
1.033e-09 7.8615e-09 6.53717e-09
3.37477e-07 2.37853e-07 -5.18151e-08
1.08145e-09 3.62182e-09 5.03816e-09
-2.31752e-08 1.63471e-08 -8.86734e-09
-1.74833e-08 8.32723e-09 2.53003e-08
3.23074e-07 2.45013e-07 -2.9554e-10
4.18227e-07 3.2266e-07 1.24451e-08
7.72251e-09 1.22322e-09 2.42817e-08
-3.81665e-09 1.12189e-08 3.39665e-08
-6.18252e-10 -2.36947e-09 -1.10269e-08
-2.41505e-06 3.03113e-07 6.38779e-07
4.74601e-08 -1.46485e-08 -6.49029e-09
-2.48562e-06 3.87855e-07 2.92006e-07
8.46264e-07 1.57992e-06 2.82408e-07
7.40135e-07 1.01924e-06 1.82897e-07
1.03538e-07 3.04378e-07 1.57866e-07
1.73578e-06 5.57589e-07 -2.81141e-07
4.35343e-07 2.02672e-07 1.30486e-07
4.47735e-07 2.86408e-07 1.29249e-07
1.42481e-07 3.29859e-07 1.52066e-07
-3.41836e-08 1.67055e-07 1.60042e-07
-1.52154e-08 1.76703e-07 1.55305e-07
3.90921e-08 1.17919e-08 -4.6156e-08
6.75177e-08 6.653e-08 -5.25134e-08
2.22001e-07 1.26014e-07 -1.27541e-07
2.03798e-06 1.07271e-05 1.81532e-06
6.00978e-09 8.35066e-09 3.13015e-08
1.69819e-09 7.60263e-09 2.25601e-08
1.14021e-06 7.83272e-07 -1.83929e-07
7.56258e-07 1.20558e-06 1.83652e-08
1.99593e-06 1.30924e-06 -7.2825e-07
1.34718e-06 1.00009e-06 -5.7268e-07
1.13693e-06 1.11888e-06 4.23885e-07
3.61322e-07 3.03322e-07 -1.0352e-08
3.35539e-07 2.71058e-07 6.83133e-08
2.85915e-07 2.25903e-07 -2.10202e-07
-1.15349e-08 2.02952e-08 7.85371e-09
-7.9936e-09 2.51993e-08 -1.59216e-09
-8.65637e-09 2.49954e-08 -3.66698e-09
6.97172e-08 2.96124e-08 -7.63763e-08
1.6905e-08 5.39945e-08 -8.3567e-08
7.31219e-08 1.08531e-07 -1.74119e-07
-8.48862e-09 6.09631e-08 -6.83027e-08
1.37319e-07 2.09228e-07 1.3808e-08
2.54602e-06 6.05675e-06 -4.42742e-07
2.0677e-08 1.76407e-08 5.71524e-08
1.4393e-08 1.7122e-08 5.82199e-08
7.26281e-07 6.71195e-08 2.35109e-07
3.95263e-06 1.34411e-06 -9.7407e-08
1.44862e-07 2.51124e-07 -1.02481e-07
1.9301e-07 1.52328e-07 -9.82214e-08
2.44763e-07 4.85799e-07 2.70624e-08
6.23511e-08 9.14248e-07 7.05874e-08
2.01013e-08 6.52419e-08 7.24703e-08
1.55364e-08 6.73819e-08 6.72299e-08
1.97064e-08 2.53774e-08 -4.40527e-08
1.70162e-08 7.04134e-09 -2.02467e-08
1.26967e-08 4.66632e-09 2.15728e-08
1.39899e-08 1.2148e-08 3.43722e-08
1.32296e-08 1.94287e-08 -3.61114e-08
1.00593e-05 4.69303e-06 1.24129e-06
2.5613e-05 2.41432e-05 -2.01482e-05
-3.75996e-09 1.88944e-07 2.36228e-07
-9.77353e-08 1.54343e-07 1.85934e-07
8.73489e-07 1.66742e-06 -2.88511e-07
8.08207e-07 1.92838e-06 -2.47604e-07
0.000275054 3.32766e-05 0.000102194
0.000249229 3.85528e-05 0.000116471
2.41844e-05 2.33586e-05 -1.9966e-05
9.72274e-06 7.96126e-06 4.11866e-06
-8.92902e-07 7.68003e-07 -1.87465e-07
-9.12856e-07 5.94388e-07 -1.65503e-07
6.23637e-06 4.64634e-06 1.82457e-06
3.10658e-05 2.7272e-05 2.6684e-05
2.70512e-05 2.04302e-05 1.95417e-05
6.91088e-10 -3.65691e-09 1.28694e-08
-1.63298e-08 1.33814e-08 -1.473e-08
-1.21062e-07 5.90021e-08 5.63011e-08
2.91163e-05 1.89337e-05 1.56102e-05
-2.27667e-07 6.69568e-08 -5.82154e-08
-1.80185e-07 8.51382e-08 2.49807e-08
-4.41404e-07 2.77519e-07 -2.04089e-07
-2.68141e-07 1.56794e-07 -1.21928e-07
-2.23844e-07 8.54933e-08 -1.26643e-08
7.1739e-07 5.58664e-06 -2.62718e-07
8.1371e-09 5.41431e-09 -7.46013e-09
8.29999e-09 6.94379e-09 -1.14045e-08
-1.26778e-08 3.44464e-08 4.78156e-10
6.66566e-09 2.69011e-08 1.72449e-08
-6.7903e-09 1.56901e-08 9.47339e-09
-1.75029e-08 3.09874e-08 1.11694e-08
-2.13858e-08 2.71963e-08 5.99416e-09
-2.71978e-08 5.33136e-08 -9.26152e-09
3.89952e-08 8.92199e-09 -4.74615e-08
2.77977e-07 3.23451e-07 3.98747e-08
2.83245e-07 1.62604e-07 -1.06552e-07
2.11411e-07 1.98633e-07 1.84109e-08
-2.08212e-08 8.80313e-08 -1.21047e-08
9.79266e-07 5.26235e-07 -6.2715e-08
-3.99127e-06 3.42844e-06 2.14359e-06
-2.39969e-06 3.57247e-06 2.20442e-06
-1.13214e-06 9.72536e-08 3.41432e-07
-9.63598e-07 -4.71438e-08 6.05776e-07
1.61927e-06 8.30676e-07 -1.10123e-07
1.4695e-06 2.75252e-07 5.01298e-07
-1.13602e-08 7.65895e-09 4.50565e-08
-5.72723e-07 -3.22621e-08 -5.67204e-07
-1.02552e-06 7.07549e-08 -5.13741e-07
-2.84103e-09 5.26471e-10 3.35839e-09
-9.78811e-09 6.92672e-09 1.23342e-08
-8.44905e-09 -7.01324e-10 -2.77441e-09
1.96156e-07 5.36416e-07 1.31213e-07
1.39253e-07 5.21788e-07 1.10933e-07
-2.10948e-08 1.8092e-08 1.88789e-08
3.42352e-07 2.42732e-07 -2.69175e-07
-7.04647e-08 2.3619e-07 1.08432e-07
-1.74596e-06 2.33188e-06 3.80361e-07
-1.66531e-06 2.24845e-06 3.11481e-07
-1.48722e-07 2.13837e-07 1.07814e-07
-1.21216e-07 1.118e-06 -7.19111e-08
-6.2386e-08 1.16507e-06 -1.05003e-07
3.08619e-07 5.9662e-07 -4.46599e-08
-2.07095e-08 2.20095e-08 2.83912e-08
1.57076e-06 3.04901e-06 -1.15824e-06
1.93631e-06 1.96821e-06 -3.99939e-07
-2.93737e-07 2.17736e-06 -1.07277e-06
-2.6304e-08 3.0049e-09 -1.14543e-08
4.3173e-05 3.65042e-05 5.18493e-05
3.07378e-05 3.49284e-05 4.65114e-05
4.89777e-09 1.13002e-10 -1.42221e-08
6.73341e-09 7.72062e-08 3.59808e-08
5.77741e-05 3.40993e-05 -4.22557e-05
1.84672e-08 1.23848e-07 6.21715e-08
2.17302e-08 2.48336e-08 4.97942e-08
3.63352e-08 2.13086e-08 5.02237e-08
3.74768e-07 3.97464e-07 -3.39437e-07
2.43502e-08 2.20486e-08 4.04005e-08
2.29775e-06 7.35093e-06 -1.49483e-06
4.18687e-06 2.50936e-06 -5.50611e-08
1.23643e-08 5.85434e-08 7.63611e-08
-1.1969e-08 6.76502e-08 1.8594e-08
-2.18798e-08 1.28951e-08 2.57573e-08
-1.14806e-08 1.30977e-09 7.95247e-09
8.18952e-06 1.78823e-06 -9.32577e-07
1.04225e-05 2.6403e-06 -4.41462e-06
-2.39906e-06 1.78694e-06 1.3181e-07
-1.66357e-07 4.31582e-07 5.53058e-08
2.78834e-06 1.09382e-06 -2.60023e-07
-5.79187e-08 8.16496e-08 6.34194e-09
-2.46316e-08 9.42621e-08 -5.44318e-09
-1.79533e-06 1.02317e-07 7.28595e-07
-2.14336e-06 6.6288e-07 -8.6735e-07
-1.0926e-06 2.70582e-07 -8.99525e-08
-1.28232e-06 1.60544e-07 -4.19474e-07
-6.5578e-08 9.71258e-08 -6.52848e-08
-4.55812e-07 4.19028e-07 1.18466e-08
5.18425e-07 1.75614e-07 -2.67567e-07
5.22308e-07 1.95085e-07 -2.19303e-07
-4.78122e-07 4.30854e-07 1.77515e-08
6.85895e-07 5.02312e-06 8.34197e-08
1.92062e-06 4.15794e-06 3.87907e-08
1.2717e-06 3.39007e-06 1.77452e-07
1.0531e-08 1.33751e-08 4.64391e-08
9.15058e-06 1.96334e-06 5.10533e-07
1.03883e-05 2.25592e-06 -1.98664e-06
-1.41443e-06 6.27325e-06 -1.08384e-06
9.78612e-09 -7.97583e-10 1.35031e-08
2.05029e-06 3.89701e-06 8.2497e-08
1.94102e-06 1.15132e-05 6.56455e-06
5.30844e-06 5.77512e-06 2.39663e-06
1.2776e-05 1.1289e-05 5.30837e-06
9.79767e-08 3.895e-07 6.43826e-08
5.86795e-08 5.23519e-07 4.44638e-08
-2.57362e-07 1.40495e-06 1.57551e-07
-1.52809e-08 7.41714e-07 8.38078e-08
7.09219e-07 3.08474e-07 1.60326e-07
3.19799e-07 5.17084e-07 9.58743e-08
2.00348e-06 6.85769e-07 -1.30051e-08
2.86164e-06 1.26706e-06 5.77633e-07
-3.00751e-08 9.79837e-10 2.39313e-08
-2.57347e-08 -1.91366e-09 1.23502e-08
6.757e-08 1.99968e-08 -8.04776e-08
5.20966e-08 1.05366e-08 -5.01511e-08
-1.70979e-08 6.419e-08 9.7182e-08
1.2362e-08 5.2267e-08 1.02095e-07
-1.33496e-08 5.4541e-08 9.09157e-08
2.68916e-07 1.03956e-07 2.00246e-07
4.07763e-07 2.5263e-07 -7.86222e-08
5.83527e-07 2.76155e-07 1.41304e-07
2.38501e-08 7.29317e-08 -8.00848e-08
1.33055e-08 7.29059e-08 -7.52812e-08
-5.48484e-08 5.85887e-07 -3.37122e-07
2.26698e-08 3.34829e-07 -1.97332e-07
-1.44307e-07 2.79251e-06 -5.16527e-07
-7.57569e-07 1.87603e-06 -3.4802e-07
-1.18082e-08 5.99018e-08 -5.44166e-08
2.06829e-07 -6.01004e-09 -4.04001e-08
-1.85412e-08 6.55424e-09 1.14549e-08
1.21205e-08 3.30574e-08 -5.01245e-08
-1.78606e-06 3.75625e-06 -1.63136e-07
-7.46268e-08 3.69093e-07 -2.74223e-07
-1.35715e-07 3.21889e-07 -2.27161e-07
2.79922e-05 3.71715e-05 3.54419e-05
1.79996e-06 9.50188e-07 1.44031e-06
0.000120379 1.08121e-05 -2.65217e-06
0.000140746 1.21904e-05 -2.58178e-05
9.7777e-05 1.27797e-05 -4.22496e-05
0.000127941 1.21173e-05 -1.90572e-05
1.87243e-06 9.15301e-07 1.55545e-06
2.67513e-05 2.83899e-05 2.60383e-05
2.48311e-05 2.84059e-05 2.40331e-05
3.86647e-08 2.86437e-08 -7.45637e-08
-2.1665e-08 5.25598e-09 -2.91938e-08
-1.12279e-08 4.23555e-09 -4.63537e-08
4.40592e-08 1.9944e-08 -6.3913e-08
2.04694e-08 1.08009e-08 -3.45027e-08
1.48692e-07 2.5323e-07 8.66532e-08
1.07177e-07 3.84937e-07 2.31509e-07
-6.95782e-07 1.01896e-07 2.32527e-07
-2.50963e-05 8.84902e-06 -8.15839e-06
-2.26665e-05 1.3061e-05 -1.44186e-05
-8.98354e-07 7.81344e-07 -2.17148e-07
2.08794e-07 2.06404e-07 -1.65693e-07
3.45125e-07 3.85352e-07 1.01794e-07
1.84738e-07 5.23582e-07 -2.75744e-07
1.7508e-07 2.2081e-07 -1.46625e-07
1.06133e-07 5.57348e-09 6.58393e-08
8.71025e-08 4.84371e-08 1.1472e-07
5.51456e-08 2.96198e-08 7.50572e-08
1.28258e-06 1.67153e-06 -1.18866e-07
1.41152e-06 1.9096e-06 -1.21116e-07
-5.12868e-05 2.18465e-05 -3.2195e-05
-1.07612e-07 2.36894e-07 6.42086e-09
2.73403e-08 8.0554e-09 2.29923e-08
-2.66679e-08 6.01932e-08 1.0895e-07
6.8203e-07 2.02836e-06 -2.18088e-07
7.01248e-07 1.34758e-06 -1.72181e-07
-6.15371e-08 1.07826e-07 -1.23731e-09
1.1825e-07 1.84247e-07 -1.80386e-10
-1.21845e-07 1.88648e-07 -1.28946e-08
-2.11628e-05 1.29585e-06 -1.12232e-06
5.54467e-09 1.18319e-07 -5.65741e-08
-1.25131e-09 1.00582e-07 -4.93558e-08
-8.06833e-06 -1.01199e-06 -2.95845e-06
8.24015e-07 7.81088e-07 -2.84692e-07
-1.55749e-05 4.72113e-06 4.70506e-06
-1.02877e-08 9.41743e-08 -8.98086e-10
1.81462e-06 6.46654e-07 1.85633e-07
1.96129e-06 5.29808e-07 4.90159e-07
2.35479e-09 6.52758e-08 -3.31741e-08
-8.56939e-09 7.34029e-08 2.20436e-08
1.12721e-07 1.99883e-07 -1.17498e-07
1.27479e-08 -5.53268e-09 -1.72284e-08
1.29941e-08 3.21317e-09 -3.33467e-08
4.47381e-07 4.73569e-07 -1.32063e-07
5.54075e-07 3.99922e-07 5.92055e-08
2.88403e-06 2.38366e-06 1.00018e-06
3.70927e-05 4.08132e-05 5.24499e-05
3.19159e-05 4.08716e-05 4.84171e-05
1.52773e-08 7.93661e-10 -2.19581e-09
-1.18244e-08 5.36432e-10 -1.76854e-08
2.28954e-05 3.36903e-05 3.79063e-05
3.54588e-07 1.01845e-07 1.48726e-07
1.80235e-07 1.49379e-07 9.49954e-09
-1.94949e-08 5.18066e-08 -2.20779e-10
-9.13832e-08 1.75829e-07 1.57997e-07
-8.55391e-08 1.92633e-07 1.58397e-07
-5.99543e-07 3.24861e-06 2.66482e-07
-8.64776e-08 4.13245e-08 3.6254e-08
-1.95778e-08 1.1052e-07 8.81694e-08
-6.49088e-05 3.70682e-05 -5.76193e-05
-5.04813e-05 3.07119e-05 -4.41467e-05
-7.47675e-07 3.2726e-06 2.80904e-07
1.04859e-06 1.26937e-06 -2.6919e-07
-2.77508e-07 2.72471e-06 3.56637e-07
-1.38852e-09 3.75669e-09 -2.25712e-08
4.08956e-08 7.24843e-07 -2.51689e-07
-6.85403e-06 3.68656e-05 -3.5834e-05
2.53415e-07 3.44592e-07 -4.45164e-08
9.77923e-07 6.69537e-07 6.97823e-07
5.96674e-08 1.05307e-07 -5.26901e-08
-2.91536e-08 4.17738e-08 2.48009e-08
8.25439e-09 2.4265e-09 -5.92195e-09
-3.33818e-09 3.51934e-09 -2.15015e-08
-1.41941e-05 2.22192e-05 -2.17426e-05
-2.73959e-08 5.53114e-08 8.13986e-08
1.39778e-06 5.17857e-07 -2.19555e-07
-4.30163e-09 -2.13731e-09 1.31335e-09
6.0418e-08 1.20023e-07 1.30745e-07
1.79991e-08 3.1761e-09 2.17985e-08
2.16765e-05 2.68895e-05 -1.89817e-05
2.65358e-07 8.6216e-08 -1.04173e-07
1.13401e-05 2.92638e-05 -2.40357e-05
0.000595942 2.09256e-05 -0.000150785
0.000619434 2.58459e-05 -0.000136088
1.51714e-08 8.96213e-08 8.63937e-08
-2.19163e-05 7.44033e-05 -0.000190803
1.33007e-08 1.0148e-07 8.33072e-08
-5.97024e-08 7.65619e-08 1.41175e-08
-6.93706e-08 5.58734e-08 -6.89809e-09
4.01553e-08 1.40529e-07 1.18885e-07
1.09269e-06 1.13976e-06 -3.59865e-07
1.32089e-08 3.3862e-09 -1.35676e-08
3.51087e-07 2.77616e-07 -1.00907e-07
3.52565e-05 4.53179e-05 -4.88877e-05
3.52623e-07 1.96299e-07 6.84963e-08
3.61037e-07 1.59664e-07 1.36385e-07
3.6653e-07 1.87944e-07 1.14376e-07
3.08836e-05 4.58181e-05 6.5628e-05
-1.0117e-07 5.41381e-08 -2.13214e-08
-8.90207e-08 4.68204e-08 -5.17536e-08
-1.69289e-07 1.12629e-07 -1.84837e-08
-3.03981e-07 2.70325e-07 -7.7301e-08
3.57462e-05 4.88809e-05 6.78707e-05
7.85676e-06 2.39501e-06 -6.19212e-08
1.64229e-06 5.82094e-06 -3.22326e-06
1.53702e-06 4.96162e-06 -2.59018e-06
0.000370652 2.66337e-05 -0.00011588
0.000356671 2.82018e-05 -0.000106338